<?xml version="1.0" encoding="UTF-8"?>

<!-- generated on 12/11/19 15:29:35 by Eclipse SUMO Version 1.3.1
<configuration xmlns:xsi="http://www.w3.org/2001/XMLSchema-instance" xsi:noNamespaceSchemaLocation="http://sumo.dlr.de/xsd/sumoConfiguration.xsd">

    <input>
        <net-file value="N7_network.net.xml"/>
        <additional-files value="vtypes.add.xml,N7_routes.rou.xml,N7_emitters.emi.xml,N7_detectors.poi.xml,outputs.add.xml"/>
    </input>

    <time>
        <begin value="0"/>
        <end value="86400"/>
        <step-length value="0.5"/>
    </time>

    <processing>
        <collision.mingap-factor value="0"/>
        <emergencydecel.warning-threshold value="5"/>
    </processing>

    <report>
        <log value="output/log.xml"/>
    </report>

    <gui_only>
        <tracker-interval value="0.5"/>
    </gui_only>

</configuration>
-->

<meandata xmlns:xsi="http://www.w3.org/2001/XMLSchema-instance" xsi:noNamespaceSchemaLocation="http://sumo.dlr.de/xsd/meandata_file.xsd">
    <interval begin="0.00" end="1800.00" id="1">
        <edge id="-123961786" sampledSeconds="0.00" departed="0" arrived="0" entered="0" left="0" laneChangedFrom="0" laneChangedTo="0"/>
        <edge id="-123961980" sampledSeconds="19.83" traveltime="6.49" overlapTraveltime="6.79" density="0.10" occupancy="0.05" waitingTime="0.00" speed="16.95" departed="0" arrived="3" entered="3" left="0" laneChangedFrom="0" laneChangedTo="0"/>
        <edge id="-128052719" sampledSeconds="7.08" traveltime="6.85" overlapTraveltime="7.08" density="0.03" occupancy="0.01" waitingTime="0.00" speed="22.63" departed="0" arrived="1" entered="1" left="0" laneChangedFrom="0" laneChangedTo="0"/>
        <edge id="-128497195" sampledSeconds="0.00" departed="0" arrived="0" entered="0" left="0" laneChangedFrom="0" laneChangedTo="0"/>
        <edge id="-22661031#2" sampledSeconds="0.00" departed="0" arrived="0" entered="0" left="0" laneChangedFrom="0" laneChangedTo="0"/>
        <edge id="-22907450" sampledSeconds="0.00" departed="0" arrived="0" entered="0" left="0" laneChangedFrom="0" laneChangedTo="0"/>
        <edge id="-275503318#2" sampledSeconds="17.97" traveltime="5.74" overlapTraveltime="6.13" density="0.15" occupancy="0.07" waitingTime="0.00" speed="11.34" departed="0" arrived="3" entered="3" left="0" laneChangedFrom="0" laneChangedTo="0"/>
        <edge id="-8296126#3" sampledSeconds="11.29" traveltime="5.38" overlapTraveltime="5.75" density="0.08" occupancy="0.04" waitingTime="0.00" speed="13.87" departed="0" arrived="2" entered="2" left="0" laneChangedFrom="0" laneChangedTo="0"/>
        <edge id="-86382092" sampledSeconds="0.00" departed="0" arrived="0" entered="0" left="0" laneChangedFrom="0" laneChangedTo="0"/>
        <edge id="-86382126" sampledSeconds="0.00" departed="0" arrived="0" entered="0" left="0" laneChangedFrom="0" laneChangedTo="0"/>
        <edge id="123959660" sampledSeconds="0.00" departed="0" arrived="0" entered="0" left="0" laneChangedFrom="0" laneChangedTo="0"/>
        <edge id="123959844" sampledSeconds="0.00" departed="0" arrived="0" entered="0" left="0" laneChangedFrom="0" laneChangedTo="0"/>
        <edge id="123960179" sampledSeconds="60.89" traveltime="14.92" overlapTraveltime="15.22" density="0.09" occupancy="0.04" waitingTime="0.00" speed="26.47" departed="0" arrived="0" entered="4" left="4" laneChangedFrom="0" laneChangedTo="0"/>
        <edge id="123960426" sampledSeconds="0.00" departed="0" arrived="0" entered="0" left="0" laneChangedFrom="0" laneChangedTo="0"/>
        <edge id="123960478" sampledSeconds="0.00" departed="0" arrived="0" entered="0" left="0" laneChangedFrom="0" laneChangedTo="0"/>
        <edge id="123960508" sampledSeconds="0.00" departed="0" arrived="0" entered="0" left="0" laneChangedFrom="0" laneChangedTo="0"/>
        <edge id="123961229#0" sampledSeconds="440.73" traveltime="6.11" overlapTraveltime="6.30" density="1.46" occupancy="0.24" waitingTime="0.00" speed="27.40" departed="0" arrived="0" entered="70" left="70" laneChangedFrom="0" laneChangedTo="0"/>
        <edge id="123961229#1" sampledSeconds="3060.49" traveltime="45.50" overlapTraveltime="45.68" density="1.36" occupancy="0.23" waitingTime="0.00" speed="27.42" departed="0" arrived="0" entered="67" left="67" laneChangedFrom="10" laneChangedTo="10"/>
        <edge id="123961229#1-AddedOffRampEdge" sampledSeconds="237.05" traveltime="3.36" overlapTraveltime="3.54" density="1.43" occupancy="0.17" waitingTime="0.00" speed="27.44" departed="0" arrived="0" entered="67" left="67" laneChangedFrom="0" laneChangedTo="0"/>
        <edge id="123961229#1-AddedOnRampEdge" sampledSeconds="244.27" traveltime="3.36" overlapTraveltime="3.54" density="1.47" occupancy="0.17" waitingTime="0.00" speed="27.39" departed="0" arrived="0" entered="70" left="67" laneChangedFrom="2" laneChangedTo="2"/>
        <edge id="123961236#0" sampledSeconds="1490.47" traveltime="6.85" overlapTraveltime="7.03" density="4.47" occupancy="0.73" waitingTime="0.00" speed="27.08" departed="0" arrived="0" entered="212" left="212" laneChangedFrom="10" laneChangedTo="10"/>
        <edge id="123961236#1" sampledSeconds="15076.83" traveltime="72.73" overlapTraveltime="72.91" density="4.25" occupancy="0.71" waitingTime="0.00" speed="27.08" departed="0" arrived="0" entered="210" left="200" laneChangedFrom="158" laneChangedTo="158"/>
        <edge id="123961236#1-AddedOffRampEdge" sampledSeconds="715.93" traveltime="3.39" overlapTraveltime="3.58" density="4.32" occupancy="0.51" waitingTime="0.00" speed="27.11" departed="0" arrived="0" entered="200" left="200" laneChangedFrom="7" laneChangedTo="7"/>
        <edge id="123961236#1-AddedOnRampEdge" sampledSeconds="755.81" traveltime="3.40" overlapTraveltime="3.58" density="4.56" occupancy="0.54" waitingTime="0.00" speed="27.10" departed="0" arrived="0" entered="212" left="210" laneChangedFrom="6" laneChangedTo="6"/>
        <edge id="123961236#12" sampledSeconds="6537.47" traveltime="38.20" overlapTraveltime="38.38" density="3.49" occupancy="0.58" waitingTime="0.00" speed="27.21" departed="0" arrived="0" entered="173" left="167" laneChangedFrom="62" laneChangedTo="62"/>
        <edge id="123961236#13" sampledSeconds="1913.96" traveltime="11.35" overlapTraveltime="11.53" density="3.44" occupancy="0.57" waitingTime="0.00" speed="27.24" departed="0" arrived="0" entered="166" left="166" laneChangedFrom="74" laneChangedTo="74"/>
        <edge id="123961236#13-AddedOffRampEdge" sampledSeconds="592.33" traveltime="3.38" overlapTraveltime="3.57" density="3.58" occupancy="0.42" waitingTime="0.00" speed="27.20" departed="0" arrived="0" entered="166" left="166" laneChangedFrom="4" laneChangedTo="4"/>
        <edge id="123961236#13-AddedOnRampEdge" sampledSeconds="593.10" traveltime="3.38" overlapTraveltime="3.56" density="3.58" occupancy="0.43" waitingTime="0.00" speed="27.24" departed="0" arrived="0" entered="167" left="166" laneChangedFrom="16" laneChangedTo="16"/>
        <edge id="123961236#6" sampledSeconds="1522.88" traveltime="7.53" overlapTraveltime="7.72" density="4.14" occupancy="0.68" waitingTime="0.00" speed="27.13" departed="0" arrived="0" entered="198" left="197" laneChangedFrom="9" laneChangedTo="9"/>
        <edge id="123961236#7" sampledSeconds="3835.80" traveltime="19.32" overlapTraveltime="19.51" density="4.07" occupancy="0.67" waitingTime="0.00" speed="27.12" departed="0" arrived="0" entered="197" left="196" laneChangedFrom="25" laneChangedTo="25"/>
        <edge id="123961236#7-AddedOffRampEdge" sampledSeconds="700.56" traveltime="3.39" overlapTraveltime="3.57" density="4.24" occupancy="0.50" waitingTime="0.00" speed="27.11" departed="0" arrived="0" entered="196" left="196" laneChangedFrom="5" laneChangedTo="5"/>
        <edge id="123961236#7-AddedOnRampEdge" sampledSeconds="704.75" traveltime="3.39" overlapTraveltime="3.58" density="4.25" occupancy="0.51" waitingTime="0.00" speed="27.15" departed="0" arrived="0" entered="197" left="197" laneChangedFrom="7" laneChangedTo="7"/>
        <edge id="123961236#8" sampledSeconds="8150.30" traveltime="42.94" overlapTraveltime="43.12" density="3.88" occupancy="0.65" waitingTime="0.00" speed="27.15" departed="0" arrived="0" entered="193" left="186" laneChangedFrom="86" laneChangedTo="86"/>
        <edge id="123961236#9" sampledSeconds="10955.05" traveltime="60.16" overlapTraveltime="60.35" density="3.71" occupancy="0.62" waitingTime="0.00" speed="27.24" departed="0" arrived="0" entered="186" left="177" laneChangedFrom="90" laneChangedTo="90"/>
        <edge id="123961236#9-AddedOffRampEdge" sampledSeconds="696.72" traveltime="3.75" overlapTraveltime="3.94" density="3.78" occupancy="0.45" waitingTime="0.00" speed="27.28" departed="0" arrived="0" entered="177" left="177" laneChangedFrom="27" laneChangedTo="27"/>
        <edge id="123961236#9-AddedOnRampEdge" sampledSeconds="663.44" traveltime="3.38" overlapTraveltime="3.57" density="4.01" occupancy="0.48" waitingTime="0.00" speed="27.19" departed="0" arrived="0" entered="186" left="186" laneChangedFrom="5" laneChangedTo="5"/>
        <edge id="123961786" sampledSeconds="0.00" departed="0" arrived="0" entered="0" left="0" laneChangedFrom="0" laneChangedTo="0"/>
        <edge id="123961980" sampledSeconds="0.00" departed="0" arrived="0" entered="0" left="0" laneChangedFrom="0" laneChangedTo="0"/>
        <edge id="123962072" sampledSeconds="4900.27" traveltime="20.14" overlapTraveltime="20.33" density="4.96" occupancy="0.82" waitingTime="0.00" speed="27.23" departed="0" arrived="0" entered="243" left="239" laneChangedFrom="67" laneChangedTo="67"/>
        <edge id="123962130-AddedOffRampEdge" sampledSeconds="873.21" traveltime="3.38" overlapTraveltime="3.57" density="5.27" occupancy="0.63" waitingTime="0.00" speed="27.20" departed="0" arrived="0" entered="245" left="244" laneChangedFrom="22" laneChangedTo="22"/>
        <edge id="123962130.2472" sampledSeconds="3755.29" traveltime="30.07" overlapTraveltime="30.26" density="2.55" occupancy="0.42" waitingTime="0.00" speed="27.20" departed="245" arrived="0" entered="0" left="245" laneChangedFrom="127" laneChangedTo="127"/>
        <edge id="123965879#0" sampledSeconds="1955.80" traveltime="24.47" overlapTraveltime="24.65" density="1.63" occupancy="0.27" waitingTime="0.00" speed="27.30" departed="0" arrived="0" entered="80" left="78" laneChangedFrom="13" laneChangedTo="13"/>
        <edge id="123965879#1" sampledSeconds="4065.56" traveltime="53.73" overlapTraveltime="53.91" density="1.54" occupancy="0.26" waitingTime="0.00" speed="27.35" departed="0" arrived="0" entered="77" left="74" laneChangedFrom="12" laneChangedTo="12"/>
        <edge id="123965879#1-AddedOffRampEdge" sampledSeconds="262.76" traveltime="3.37" overlapTraveltime="3.55" density="1.59" occupancy="0.19" waitingTime="0.00" speed="27.34" departed="0" arrived="0" entered="74" left="74" laneChangedFrom="1" laneChangedTo="1"/>
        <edge id="123965879#1-AddedOnRampEdge" sampledSeconds="272.92" traveltime="3.36" overlapTraveltime="3.54" density="1.65" occupancy="0.20" waitingTime="0.00" speed="27.31" departed="0" arrived="0" entered="78" left="77" laneChangedFrom="0" laneChangedTo="0"/>
        <edge id="123965879#3" sampledSeconds="443.49" traveltime="5.94" overlapTraveltime="6.12" density="1.52" occupancy="0.25" waitingTime="0.00" speed="27.36" departed="0" arrived="0" entered="73" left="72" laneChangedFrom="2" laneChangedTo="2"/>
        <edge id="123965879#4" sampledSeconds="4571.74" traveltime="63.64" overlapTraveltime="63.82" density="1.46" occupancy="0.24" waitingTime="0.00" speed="27.39" departed="0" arrived="0" entered="72" left="70" laneChangedFrom="20" laneChangedTo="20"/>
        <edge id="123965879#4-AddedOffRampEdge" sampledSeconds="248.46" traveltime="3.37" overlapTraveltime="3.55" density="1.50" occupancy="0.18" waitingTime="0.00" speed="27.37" departed="0" arrived="0" entered="70" left="70" laneChangedFrom="2" laneChangedTo="2"/>
        <edge id="123965879#4-AddedOnRampEdge" sampledSeconds="254.99" traveltime="3.36" overlapTraveltime="3.54" density="1.54" occupancy="0.18" waitingTime="0.00" speed="27.40" departed="0" arrived="0" entered="72" left="72" laneChangedFrom="1" laneChangedTo="1"/>
        <edge id="123966730" sampledSeconds="81.26" traveltime="13.23" overlapTraveltime="13.54" density="0.13" occupancy="0.06" waitingTime="0.00" speed="25.88" departed="0" arrived="0" entered="6" left="6" laneChangedFrom="0" laneChangedTo="0"/>
        <edge id="123967087" sampledSeconds="0.00" departed="0" arrived="0" entered="0" left="0" laneChangedFrom="0" laneChangedTo="0"/>
        <edge id="123967236#0" sampledSeconds="2953.98" traveltime="33.46" overlapTraveltime="33.64" density="1.79" occupancy="0.30" waitingTime="0.00" speed="27.34" departed="0" arrived="0" entered="90" left="86" laneChangedFrom="12" laneChangedTo="12"/>
        <edge id="123967236#1" sampledSeconds="5521.08" traveltime="64.02" overlapTraveltime="64.20" density="1.75" occupancy="0.29" waitingTime="0.00" speed="27.33" departed="0" arrived="0" entered="86" left="86" laneChangedFrom="14" laneChangedTo="14"/>
        <edge id="123967236#1-AddedOffRampEdge" sampledSeconds="305.50" traveltime="3.37" overlapTraveltime="3.55" density="1.84" occupancy="0.22" waitingTime="0.00" speed="27.31" departed="0" arrived="0" entered="86" left="86" laneChangedFrom="1" laneChangedTo="1"/>
        <edge id="123967236#1-AddedOnRampEdge" sampledSeconds="304.99" traveltime="3.36" overlapTraveltime="3.55" density="1.84" occupancy="0.22" waitingTime="0.00" speed="27.35" departed="0" arrived="0" entered="86" left="86" laneChangedFrom="2" laneChangedTo="2"/>
        <edge id="123969747" sampledSeconds="2612.40" traveltime="28.84" overlapTraveltime="29.03" density="1.84" occupancy="0.30" waitingTime="0.00" speed="27.35" departed="0" arrived="0" entered="90" left="90" laneChangedFrom="82" laneChangedTo="82"/>
        <edge id="123969747-AddedOffRampEdge" sampledSeconds="332.22" traveltime="3.51" overlapTraveltime="3.69" density="1.92" occupancy="0.30" waitingTime="0.00" speed="27.36" departed="0" arrived="0" entered="90" left="90" laneChangedFrom="2" laneChangedTo="2"/>
        <edge id="123969747-AddedOnRampEdge" sampledSeconds="300.60" traveltime="3.16" overlapTraveltime="3.34" density="1.94" occupancy="0.31" waitingTime="0.00" speed="27.28" departed="0" arrived="0" entered="90" left="90" laneChangedFrom="0" laneChangedTo="0"/>
        <edge id="128052719" sampledSeconds="0.00" departed="0" arrived="0" entered="0" left="0" laneChangedFrom="0" laneChangedTo="0"/>
        <edge id="128497195" sampledSeconds="9.71" traveltime="4.74" overlapTraveltime="5.00" density="0.07" occupancy="0.03" waitingTime="0.00" speed="17.40" departed="0" arrived="2" entered="2" left="0" laneChangedFrom="0" laneChangedTo="0"/>
        <edge id="128497230#0" sampledSeconds="0.00" departed="0" arrived="0" entered="0" left="0" laneChangedFrom="0" laneChangedTo="0"/>
        <edge id="128497230#1" sampledSeconds="0.00" departed="0" arrived="0" entered="0" left="0" laneChangedFrom="0" laneChangedTo="0"/>
        <edge id="128497230#1-AddedOnRampEdge" sampledSeconds="0.00" departed="0" arrived="0" entered="0" left="0" laneChangedFrom="0" laneChangedTo="0"/>
        <edge id="128497341#0" sampledSeconds="58.47" traveltime="19.12" overlapTraveltime="19.49" density="0.07" occupancy="0.04" waitingTime="0.00" speed="24.38" departed="0" arrived="0" entered="3" left="3" laneChangedFrom="0" laneChangedTo="0"/>
        <edge id="128497436" sampledSeconds="0.00" departed="0" arrived="0" entered="0" left="0" laneChangedFrom="0" laneChangedTo="0"/>
        <edge id="192556113" sampledSeconds="0.00" departed="0" arrived="0" entered="0" left="0" laneChangedFrom="0" laneChangedTo="0"/>
        <edge id="22661029" sampledSeconds="0.00" departed="0" arrived="0" entered="0" left="0" laneChangedFrom="0" laneChangedTo="0"/>
        <edge id="22661030" sampledSeconds="0.00" departed="0" arrived="0" entered="0" left="0" laneChangedFrom="0" laneChangedTo="0"/>
        <edge id="22661031#0" sampledSeconds="0.00" departed="0" arrived="0" entered="0" left="0" laneChangedFrom="0" laneChangedTo="0"/>
        <edge id="22780363" sampledSeconds="32.94" traveltime="16.29" overlapTraveltime="16.54" density="0.06" occupancy="0.03" waitingTime="0.00" speed="20.29" departed="0" arrived="2" entered="2" left="0" laneChangedFrom="0" laneChangedTo="0"/>
        <edge id="22907436" sampledSeconds="5.74" traveltime="1.65" overlapTraveltime="1.91" density="0.09" occupancy="0.04" waitingTime="0.00" speed="21.35" departed="0" arrived="0" entered="3" left="3" laneChangedFrom="0" laneChangedTo="0"/>
        <edge id="22907450" sampledSeconds="0.00" departed="0" arrived="0" entered="0" left="0" laneChangedFrom="0" laneChangedTo="0"/>
        <edge id="22907452" sampledSeconds="0.00" departed="0" arrived="0" entered="0" left="0" laneChangedFrom="0" laneChangedTo="0"/>
        <edge id="22907453" sampledSeconds="0.00" departed="0" arrived="0" entered="0" left="0" laneChangedFrom="0" laneChangedTo="0"/>
        <edge id="23565360#0" sampledSeconds="0.00" departed="0" arrived="0" entered="0" left="0" laneChangedFrom="0" laneChangedTo="0"/>
        <edge id="24644789" sampledSeconds="73.32" traveltime="18.24" overlapTraveltime="18.48" density="0.11" occupancy="0.03" waitingTime="0.00" speed="21.00" departed="0" arrived="4" entered="4" left="0" laneChangedFrom="0" laneChangedTo="0"/>
        <edge id="24644790" sampledSeconds="0.00" departed="0" arrived="0" entered="0" left="0" laneChangedFrom="0" laneChangedTo="0"/>
        <edge id="25508818" sampledSeconds="0.00" departed="0" arrived="0" entered="0" left="0" laneChangedFrom="0" laneChangedTo="0"/>
        <edge id="25750596" sampledSeconds="0.00" departed="0" arrived="0" entered="0" left="0" laneChangedFrom="0" laneChangedTo="0"/>
        <edge id="25750689" sampledSeconds="11.48" traveltime="5.40" overlapTraveltime="5.74" density="0.05" occupancy="0.03" waitingTime="0.00" speed="21.08" departed="0" arrived="0" entered="2" left="2" laneChangedFrom="0" laneChangedTo="0"/>
        <edge id="27352484#0" sampledSeconds="21.94" traveltime="6.95" overlapTraveltime="7.31" density="0.07" occupancy="0.03" waitingTime="0.00" speed="24.00" departed="0" arrived="0" entered="3" left="3" laneChangedFrom="0" laneChangedTo="0"/>
        <edge id="27352485" sampledSeconds="0.00" departed="0" arrived="0" entered="0" left="0" laneChangedFrom="0" laneChangedTo="0"/>
        <edge id="275503308#0" sampledSeconds="0.00" departed="0" arrived="0" entered="0" left="0" laneChangedFrom="0" laneChangedTo="0"/>
        <edge id="275503308#1" sampledSeconds="0.00" departed="0" arrived="0" entered="0" left="0" laneChangedFrom="0" laneChangedTo="0"/>
        <edge id="275503308#1-AddedOnRampEdge" sampledSeconds="0.00" departed="0" arrived="0" entered="0" left="0" laneChangedFrom="0" laneChangedTo="0"/>
        <edge id="275503314" sampledSeconds="0.00" departed="0" arrived="0" entered="0" left="0" laneChangedFrom="0" laneChangedTo="0"/>
        <edge id="275503318#0" sampledSeconds="0.00" departed="0" arrived="0" entered="0" left="0" laneChangedFrom="0" laneChangedTo="0"/>
        <edge id="29334378" sampledSeconds="0.00" departed="0" arrived="0" entered="0" left="0" laneChangedFrom="0" laneChangedTo="0"/>
        <edge id="29334379" sampledSeconds="3.64" traveltime="3.42" overlapTraveltime="3.64" density="0.03" occupancy="0.01" waitingTime="0.00" speed="22.59" departed="0" arrived="0" entered="1" left="1" laneChangedFrom="0" laneChangedTo="0"/>
        <edge id="29334729" sampledSeconds="0.00" departed="0" arrived="0" entered="0" left="0" laneChangedFrom="0" laneChangedTo="0"/>
        <edge id="32015714#0" sampledSeconds="3403.51" traveltime="66.87" overlapTraveltime="67.02" density="0.87" occupancy="0.22" waitingTime="0.00" speed="32.66" departed="94" arrived="0" entered="0" left="93" laneChangedFrom="50" laneChangedTo="50"/>
        <edge id="32015714#0-AddedOffRampEdge" sampledSeconds="276.69" traveltime="2.82" overlapTraveltime="2.98" density="1.67" occupancy="0.26" waitingTime="0.00" speed="32.60" departed="0" arrived="0" entered="93" left="93" laneChangedFrom="2" laneChangedTo="2"/>
        <edge id="32015714#1" sampledSeconds="1027.96" traveltime="11.13" overlapTraveltime="11.31" density="1.58" occupancy="0.39" waitingTime="0.00" speed="32.31" departed="0" arrived="0" entered="91" left="90" laneChangedFrom="9" laneChangedTo="9"/>
        <edge id="321265666#1" sampledSeconds="295.00" traveltime="4.22" overlapTraveltime="4.40" density="1.42" occupancy="0.23" waitingTime="0.00" speed="27.42" departed="0" arrived="0" entered="67" left="67" laneChangedFrom="1" laneChangedTo="1"/>
        <edge id="321265666#2" sampledSeconds="232.59" traveltime="3.29" overlapTraveltime="3.47" density="1.43" occupancy="0.23" waitingTime="0.00" speed="27.43" departed="0" arrived="0" entered="67" left="67" laneChangedFrom="0" laneChangedTo="0"/>
        <edge id="321265666#2-AddedOffRampEdge" sampledSeconds="237.06" traveltime="3.36" overlapTraveltime="3.54" density="1.43" occupancy="0.17" waitingTime="0.00" speed="27.41" departed="0" arrived="0" entered="67" left="67" laneChangedFrom="0" laneChangedTo="0"/>
        <edge id="321265666#2-AddedOnRampEdge" sampledSeconds="237.65" traveltime="3.36" overlapTraveltime="3.55" density="1.43" occupancy="0.17" waitingTime="0.00" speed="27.41" departed="0" arrived="0" entered="67" left="67" laneChangedFrom="1" laneChangedTo="1"/>
        <edge id="321279636#1" sampledSeconds="78.48" traveltime="0.99" overlapTraveltime="1.17" density="1.61" occupancy="0.23" waitingTime="0.00" speed="27.41" departed="0" arrived="0" entered="67" left="67" laneChangedFrom="2" laneChangedTo="2"/>
        <edge id="321279636#2" sampledSeconds="903.88" traveltime="13.31" overlapTraveltime="13.49" density="1.38" occupancy="0.23" waitingTime="0.00" speed="27.42" departed="0" arrived="0" entered="67" left="67" laneChangedFrom="2" laneChangedTo="2"/>
        <edge id="321279636#2-AddedOffRampEdge" sampledSeconds="236.05" traveltime="3.34" overlapTraveltime="3.52" density="1.43" occupancy="0.17" waitingTime="0.00" speed="27.42" departed="0" arrived="0" entered="67" left="67" laneChangedFrom="2" laneChangedTo="2"/>
        <edge id="321279636#2-AddedOnRampEdge" sampledSeconds="236.39" traveltime="3.35" overlapTraveltime="3.53" density="1.43" occupancy="0.17" waitingTime="0.00" speed="27.43" departed="0" arrived="0" entered="67" left="67" laneChangedFrom="1" laneChangedTo="1"/>
        <edge id="321279636#3" sampledSeconds="103.92" traveltime="1.37" overlapTraveltime="1.55" density="1.54" occupancy="0.23" waitingTime="0.00" speed="27.42" departed="0" arrived="0" entered="67" left="67" laneChangedFrom="1" laneChangedTo="1"/>
        <edge id="321279636#4" sampledSeconds="1478.52" traveltime="22.06" overlapTraveltime="22.24" density="1.36" occupancy="0.22" waitingTime="0.00" speed="27.44" departed="0" arrived="0" entered="67" left="66" laneChangedFrom="7" laneChangedTo="7"/>
        <edge id="321279636#4-AddedOffRampEdge" sampledSeconds="232.87" traveltime="3.35" overlapTraveltime="3.53" density="1.41" occupancy="0.17" waitingTime="0.00" speed="27.46" departed="0" arrived="0" entered="66" left="66" laneChangedFrom="2" laneChangedTo="2"/>
        <edge id="321279636#4-AddedOnRampEdge" sampledSeconds="236.63" traveltime="3.35" overlapTraveltime="3.53" density="1.43" occupancy="0.17" waitingTime="0.00" speed="27.42" departed="0" arrived="0" entered="67" left="67" laneChangedFrom="3" laneChangedTo="3"/>
        <edge id="321279636#5" sampledSeconds="3570.45" traveltime="55.09" overlapTraveltime="55.27" density="1.31" occupancy="0.22" waitingTime="0.00" speed="27.48" departed="0" arrived="0" entered="66" left="63" laneChangedFrom="22" laneChangedTo="22"/>
        <edge id="325686453#1" sampledSeconds="8197.58" traveltime="34.29" overlapTraveltime="34.48" density="4.88" occupancy="0.81" waitingTime="0.00" speed="27.20" departed="0" arrived="0" entered="239" left="235" laneChangedFrom="73" laneChangedTo="73"/>
        <edge id="325686453#1-AddedOffRampEdge" sampledSeconds="839.62" traveltime="3.39" overlapTraveltime="3.57" density="5.07" occupancy="0.60" waitingTime="0.00" speed="27.16" departed="0" arrived="0" entered="235" left="235" laneChangedFrom="5" laneChangedTo="5"/>
        <edge id="325686453#1-AddedOnRampEdge" sampledSeconds="862.98" traveltime="3.43" overlapTraveltime="3.61" density="5.14" occupancy="0.61" waitingTime="0.00" speed="27.22" departed="0" arrived="0" entered="239" left="239" laneChangedFrom="12" laneChangedTo="12"/>
        <edge id="325686453#4" sampledSeconds="1887.29" traveltime="7.92" overlapTraveltime="8.10" density="4.88" occupancy="0.80" waitingTime="0.00" speed="27.14" departed="0" arrived="0" entered="233" left="232" laneChangedFrom="26" laneChangedTo="26"/>
        <edge id="325686453#5" sampledSeconds="901.29" traveltime="3.70" overlapTraveltime="3.88" density="4.99" occupancy="0.79" waitingTime="0.00" speed="27.14" departed="0" arrived="0" entered="232" left="232" laneChangedFrom="6" laneChangedTo="6"/>
        <edge id="325686453#5-AddedOffRampEdge" sampledSeconds="829.58" traveltime="3.39" overlapTraveltime="3.58" density="5.01" occupancy="0.60" waitingTime="0.00" speed="27.10" departed="0" arrived="0" entered="232" left="232" laneChangedFrom="9" laneChangedTo="9"/>
        <edge id="325686453#5-AddedOnRampEdge" sampledSeconds="828.96" traveltime="3.39" overlapTraveltime="3.57" density="5.00" occupancy="0.60" waitingTime="0.00" speed="27.16" departed="0" arrived="0" entered="232" left="232" laneChangedFrom="12" laneChangedTo="12"/>
        <edge id="325686453#6" sampledSeconds="1754.93" traveltime="7.49" overlapTraveltime="7.68" density="4.79" occupancy="0.78" waitingTime="0.00" speed="27.16" departed="0" arrived="0" entered="229" left="228" laneChangedFrom="16" laneChangedTo="16"/>
        <edge id="325686453#6-AddedOffRampEdge" sampledSeconds="815.12" traveltime="3.39" overlapTraveltime="3.58" density="4.92" occupancy="0.59" waitingTime="0.00" speed="27.14" departed="0" arrived="0" entered="228" left="228" laneChangedFrom="8" laneChangedTo="8"/>
        <edge id="325686453#7" sampledSeconds="3995.62" traveltime="17.35" overlapTraveltime="17.53" density="4.72" occupancy="0.78" waitingTime="0.00" speed="27.14" departed="0" arrived="0" entered="228" left="226" laneChangedFrom="31" laneChangedTo="31"/>
        <edge id="325686453#8" sampledSeconds="15978.20" traveltime="72.24" overlapTraveltime="72.42" density="4.53" occupancy="0.76" waitingTime="0.00" speed="27.12" departed="0" arrived="0" entered="225" left="216" laneChangedFrom="139" laneChangedTo="139"/>
        <edge id="325686453#8-AddedOffRampEdge" sampledSeconds="771.73" traveltime="3.40" overlapTraveltime="3.58" density="4.66" occupancy="0.55" waitingTime="0.00" speed="27.08" departed="0" arrived="0" entered="216" left="215" laneChangedFrom="5" laneChangedTo="5"/>
        <edge id="325686453#8-AddedOnRampEdge" sampledSeconds="807.77" traveltime="3.40" overlapTraveltime="3.59" density="4.86" occupancy="0.58" waitingTime="0.00" speed="27.14" departed="0" arrived="0" entered="226" left="225" laneChangedFrom="6" laneChangedTo="6"/>
        <edge id="327268097#1" sampledSeconds="2330.94" traveltime="36.91" overlapTraveltime="37.09" density="1.28" occupancy="0.21" waitingTime="0.00" speed="27.43" departed="0" arrived="62" entered="63" left="0" laneChangedFrom="6" laneChangedTo="6"/>
        <edge id="327268097#1-AddedOnRampEdge" sampledSeconds="223.57" traveltime="3.37" overlapTraveltime="3.55" density="1.35" occupancy="0.16" waitingTime="0.00" speed="27.43" departed="0" arrived="0" entered="63" left="63" laneChangedFrom="0" laneChangedTo="0"/>
        <edge id="38245579#0" sampledSeconds="1430.91" traveltime="8.88" overlapTraveltime="9.03" density="2.81" occupancy="0.69" waitingTime="0.00" speed="31.88" departed="0" arrived="0" entered="160" left="158" laneChangedFrom="9" laneChangedTo="9"/>
        <edge id="38245579#1" sampledSeconds="10649.43" traveltime="68.93" overlapTraveltime="69.09" density="2.63" occupancy="0.66" waitingTime="0.00" speed="32.68" departed="0" arrived="150" entered="158" left="0" laneChangedFrom="71" laneChangedTo="71"/>
        <edge id="38245579#1-AddedOnRampEdge" sampledSeconds="468.25" traveltime="2.81" overlapTraveltime="2.96" density="2.82" occupancy="0.45" waitingTime="0.00" speed="32.81" departed="0" arrived="0" entered="158" left="158" laneChangedFrom="3" laneChangedTo="3"/>
        <edge id="398588970" sampledSeconds="0.00" departed="0" arrived="0" entered="0" left="0" laneChangedFrom="0" laneChangedTo="0"/>
        <edge id="40388800" sampledSeconds="1057.96" traveltime="11.57" overlapTraveltime="11.76" density="1.86" occupancy="0.46" waitingTime="0.00" speed="27.26" departed="0" arrived="0" entered="90" left="90" laneChangedFrom="7" laneChangedTo="7"/>
        <edge id="4258460" sampledSeconds="4692.10" traveltime="28.95" overlapTraveltime="29.13" density="3.30" occupancy="0.82" waitingTime="0.00" speed="27.28" departed="0" arrived="0" entered="162" left="160" laneChangedFrom="28" laneChangedTo="28"/>
        <edge id="4258491" sampledSeconds="9.77" traveltime="4.50" overlapTraveltime="4.89" density="0.06" occupancy="0.03" waitingTime="0.00" speed="19.55" departed="0" arrived="0" entered="2" left="2" laneChangedFrom="0" laneChangedTo="0"/>
        <edge id="42872148#0" sampledSeconds="0.00" departed="0" arrived="0" entered="0" left="0" laneChangedFrom="0" laneChangedTo="0"/>
        <edge id="42872148#1" sampledSeconds="0.00" departed="0" arrived="0" entered="0" left="0" laneChangedFrom="0" laneChangedTo="0"/>
        <edge id="42872148#1-AddedOnRampEdge" sampledSeconds="0.00" departed="0" arrived="0" entered="0" left="0" laneChangedFrom="0" laneChangedTo="0"/>