<?xml version="1.0" encoding="UTF-8"?>

<!-- generated on 12/11/19 15:30:19 by Eclipse SUMO Version 1.3.1
<configuration xmlns:xsi="http://www.w3.org/2001/XMLSchema-instance" xsi:noNamespaceSchemaLocation="http://sumo.dlr.de/xsd/sumoConfiguration.xsd">

    <input>
        <net-file value="N7_network.net.xml"/>
        <additional-files value="vtypes.add.xml,N7_routes.rou.xml,N7_emitters.emi.xml,N7_detectors.poi.xml,outputs.add.xml"/>
    </input>

    <time>
        <begin value="0"/>
        <end value="86400"/>
        <step-length value="0.5"/>
    </time>

    <processing>
        <collision.mingap-factor value="0"/>
        <emergencydecel.warning-threshold value="5"/>
    </processing>

    <report>
        <log value="output/log.xml"/>
    </report>

    <gui_only>
        <tracker-interval value="0.5"/>
    </gui_only>

</configuration>
-->

<meandata xmlns:xsi="http://www.w3.org/2001/XMLSchema-instance" xsi:noNamespaceSchemaLocation="http://sumo.dlr.de/xsd/meandata_file.xsd">
    <interval begin="0.00" end="1800.00" id="1">
        <edge id="-123961786" sampledSeconds="0.00" departed="0" arrived="0" entered="0" left="0" laneChangedFrom="0" laneChangedTo="0"/>
        <edge id="-123961980" sampledSeconds="19.71" traveltime="6.43" overlapTraveltime="6.72" density="0.10" occupancy="0.05" waitingTime="0.00" speed="17.12" departed="0" arrived="3" entered="3" left="0" laneChangedFrom="0" laneChangedTo="0"/>
        <edge id="-128052719" sampledSeconds="6.89" traveltime="6.88" overlapTraveltime="7.10" density="0.02" occupancy="0.01" waitingTime="0.00" speed="22.54" departed="0" arrived="1" entered="1" left="0" laneChangedFrom="0" laneChangedTo="0"/>
        <edge id="-128497195" sampledSeconds="0.00" departed="0" arrived="0" entered="0" left="0" laneChangedFrom="0" laneChangedTo="0"/>
        <edge id="-22661031#2" sampledSeconds="0.00" departed="0" arrived="0" entered="0" left="0" laneChangedFrom="0" laneChangedTo="0"/>
        <edge id="-22907450" sampledSeconds="0.00" departed="0" arrived="0" entered="0" left="0" laneChangedFrom="0" laneChangedTo="0"/>
        <edge id="-275503318#2" sampledSeconds="17.05" traveltime="5.35" overlapTraveltime="5.71" density="0.15" occupancy="0.07" waitingTime="0.00" speed="12.17" departed="0" arrived="3" entered="3" left="0" laneChangedFrom="0" laneChangedTo="0"/>
        <edge id="-8296126#3" sampledSeconds="11.16" traveltime="5.32" overlapTraveltime="5.67" density="0.08" occupancy="0.04" waitingTime="0.00" speed="14.06" departed="0" arrived="2" entered="2" left="0" laneChangedFrom="0" laneChangedTo="0"/>
        <edge id="-86382092" sampledSeconds="0.00" departed="0" arrived="0" entered="0" left="0" laneChangedFrom="0" laneChangedTo="0"/>
        <edge id="-86382126" sampledSeconds="0.00" departed="0" arrived="0" entered="0" left="0" laneChangedFrom="0" laneChangedTo="0"/>
        <edge id="123959660" sampledSeconds="0.00" departed="0" arrived="0" entered="0" left="0" laneChangedFrom="0" laneChangedTo="0"/>
        <edge id="123959844" sampledSeconds="0.00" departed="0" arrived="0" entered="0" left="0" laneChangedFrom="0" laneChangedTo="0"/>
        <edge id="123960179" sampledSeconds="59.89" traveltime="14.68" overlapTraveltime="14.97" density="0.08" occupancy="0.04" waitingTime="0.00" speed="26.91" departed="0" arrived="0" entered="4" left="4" laneChangedFrom="0" laneChangedTo="0"/>
        <edge id="123960426" sampledSeconds="0.00" departed="0" arrived="0" entered="0" left="0" laneChangedFrom="0" laneChangedTo="0"/>
        <edge id="123960478" sampledSeconds="0.00" departed="0" arrived="0" entered="0" left="0" laneChangedFrom="0" laneChangedTo="0"/>
        <edge id="123960508" sampledSeconds="0.00" departed="0" arrived="0" entered="0" left="0" laneChangedFrom="0" laneChangedTo="0"/>
        <edge id="123961229#0" sampledSeconds="437.44" traveltime="6.07" overlapTraveltime="6.25" density="1.45" occupancy="0.23" waitingTime="0.00" speed="27.60" departed="0" arrived="0" entered="70" left="70" laneChangedFrom="1" laneChangedTo="1"/>
        <edge id="123961229#1" sampledSeconds="3079.81" traveltime="45.26" overlapTraveltime="45.44" density="1.37" occupancy="0.23" waitingTime="0.00" speed="27.56" departed="0" arrived="0" entered="69" left="67" laneChangedFrom="23" laneChangedTo="23"/>
        <edge id="123961229#1-AddedOffRampEdge" sampledSeconds="235.84" traveltime="3.34" overlapTraveltime="3.52" density="1.42" occupancy="0.17" waitingTime="0.00" speed="27.58" departed="0" arrived="0" entered="67" left="67" laneChangedFrom="0" laneChangedTo="0"/>
        <edge id="123961229#1-AddedOnRampEdge" sampledSeconds="243.65" traveltime="3.34" overlapTraveltime="3.52" density="1.47" occupancy="0.17" waitingTime="0.00" speed="27.57" departed="0" arrived="0" entered="70" left="69" laneChangedFrom="2" laneChangedTo="2"/>
        <edge id="123961236#0" sampledSeconds="1487.24" traveltime="6.83" overlapTraveltime="7.02" density="4.46" occupancy="0.73" waitingTime="0.00" speed="27.14" departed="0" arrived="0" entered="212" left="212" laneChangedFrom="6" laneChangedTo="6"/>
        <edge id="123961236#1" sampledSeconds="15086.27" traveltime="72.59" overlapTraveltime="72.77" density="4.26" occupancy="0.71" waitingTime="0.00" speed="27.13" departed="0" arrived="0" entered="212" left="201" laneChangedFrom="169" laneChangedTo="169"/>
        <edge id="123961236#1-AddedOffRampEdge" sampledSeconds="717.46" traveltime="3.39" overlapTraveltime="3.57" density="4.33" occupancy="0.52" waitingTime="0.00" speed="27.19" departed="0" arrived="0" entered="201" left="201" laneChangedFrom="8" laneChangedTo="8"/>
        <edge id="123961236#1-AddedOnRampEdge" sampledSeconds="758.56" traveltime="3.39" overlapTraveltime="3.58" density="4.58" occupancy="0.54" waitingTime="0.00" speed="27.14" departed="0" arrived="0" entered="212" left="212" laneChangedFrom="10" laneChangedTo="10"/>
        <edge id="123961236#12" sampledSeconds="6573.76" traveltime="38.17" overlapTraveltime="38.35" density="3.51" occupancy="0.58" waitingTime="0.00" speed="27.23" departed="0" arrived="0" entered="175" left="167" laneChangedFrom="62" laneChangedTo="62"/>
        <edge id="123961236#13" sampledSeconds="1921.77" traveltime="11.39" overlapTraveltime="11.58" density="3.45" occupancy="0.57" waitingTime="0.00" speed="27.13" departed="0" arrived="0" entered="166" left="166" laneChangedFrom="42" laneChangedTo="42"/>
        <edge id="123961236#13-AddedOffRampEdge" sampledSeconds="591.22" traveltime="3.39" overlapTraveltime="3.57" density="3.57" occupancy="0.42" waitingTime="0.00" speed="27.18" departed="0" arrived="0" entered="166" left="165" laneChangedFrom="10" laneChangedTo="10"/>
        <edge id="123961236#13-AddedOnRampEdge" sampledSeconds="591.80" traveltime="3.37" overlapTraveltime="3.55" density="3.57" occupancy="0.42" waitingTime="0.00" speed="27.30" departed="0" arrived="0" entered="167" left="166" laneChangedFrom="7" laneChangedTo="7"/>
        <edge id="123961236#6" sampledSeconds="1526.46" traveltime="7.52" overlapTraveltime="7.71" density="4.15" occupancy="0.68" waitingTime="0.00" speed="27.16" departed="0" arrived="0" entered="198" left="198" laneChangedFrom="6" laneChangedTo="6"/>
        <edge id="123961236#7" sampledSeconds="3861.90" traveltime="19.33" overlapTraveltime="19.52" density="4.09" occupancy="0.68" waitingTime="0.00" speed="27.11" departed="0" arrived="0" entered="198" left="196" laneChangedFrom="17" laneChangedTo="17"/>
        <edge id="123961236#7-AddedOffRampEdge" sampledSeconds="692.42" traveltime="3.39" overlapTraveltime="3.58" density="4.19" occupancy="0.50" waitingTime="0.00" speed="27.09" departed="0" arrived="0" entered="195" left="193" laneChangedFrom="8" laneChangedTo="8"/>
        <edge id="123961236#7-AddedOnRampEdge" sampledSeconds="708.45" traveltime="3.39" overlapTraveltime="3.58" density="4.27" occupancy="0.51" waitingTime="0.00" speed="27.14" departed="0" arrived="0" entered="198" left="198" laneChangedFrom="5" laneChangedTo="5"/>
        <edge id="123961236#8" sampledSeconds="8135.36" traveltime="43.03" overlapTraveltime="43.21" density="3.88" occupancy="0.64" waitingTime="0.00" speed="27.10" departed="0" arrived="0" entered="190" left="186" laneChangedFrom="92" laneChangedTo="92"/>
        <edge id="123961236#9" sampledSeconds="11026.48" traveltime="60.17" overlapTraveltime="60.36" density="3.74" occupancy="0.62" waitingTime="0.00" speed="27.24" departed="0" arrived="0" entered="186" left="179" laneChangedFrom="170" laneChangedTo="170"/>
        <edge id="123961236#9-AddedOffRampEdge" sampledSeconds="705.33" traveltime="3.76" overlapTraveltime="3.94" density="3.83" occupancy="0.46" waitingTime="0.00" speed="27.25" departed="0" arrived="0" entered="179" left="179" laneChangedFrom="79" laneChangedTo="79"/>
        <edge id="123961236#9-AddedOnRampEdge" sampledSeconds="663.84" traveltime="3.38" overlapTraveltime="3.57" density="4.01" occupancy="0.48" waitingTime="0.00" speed="27.18" departed="0" arrived="0" entered="186" left="186" laneChangedFrom="12" laneChangedTo="12"/>
        <edge id="123961786" sampledSeconds="0.00" departed="0" arrived="0" entered="0" left="0" laneChangedFrom="0" laneChangedTo="0"/>
        <edge id="123961980" sampledSeconds="0.00" departed="0" arrived="0" entered="0" left="0" laneChangedFrom="0" laneChangedTo="0"/>
        <edge id="123962072" sampledSeconds="4868.47" traveltime="20.03" overlapTraveltime="20.21" density="4.93" occupancy="0.82" waitingTime="0.00" speed="27.38" departed="0" arrived="0" entered="243" left="239" laneChangedFrom="92" laneChangedTo="92"/>
        <edge id="123962130-AddedOffRampEdge" sampledSeconds="862.61" traveltime="3.35" overlapTraveltime="3.54" density="5.21" occupancy="0.62" waitingTime="0.00" speed="27.44" departed="0" arrived="0" entered="244" left="244" laneChangedFrom="25" laneChangedTo="25"/>
        <edge id="123962130.2472" sampledSeconds="3876.07" traveltime="29.80" overlapTraveltime="29.98" density="2.63" occupancy="0.44" waitingTime="0.00" speed="27.45" departed="245" arrived="0" entered="0" left="244" laneChangedFrom="166" laneChangedTo="166"/>
        <edge id="123965879#0" sampledSeconds="1950.67" traveltime="24.24" overlapTraveltime="24.42" density="1.62" occupancy="0.27" waitingTime="0.00" speed="27.56" departed="0" arrived="0" entered="80" left="79" laneChangedFrom="6" laneChangedTo="6"/>
        <edge id="123965879#1" sampledSeconds="4066.90" traveltime="53.28" overlapTraveltime="53.47" density="1.54" occupancy="0.26" waitingTime="0.00" speed="27.58" departed="0" arrived="0" entered="79" left="74" laneChangedFrom="14" laneChangedTo="14"/>
        <edge id="123965879#1-AddedOffRampEdge" sampledSeconds="260.57" traveltime="3.34" overlapTraveltime="3.52" density="1.57" occupancy="0.19" waitingTime="0.00" speed="27.57" departed="0" arrived="0" entered="74" left="74" laneChangedFrom="0" laneChangedTo="0"/>
        <edge id="123965879#1-AddedOnRampEdge" sampledSeconds="277.60" traveltime="3.33" overlapTraveltime="3.51" density="1.68" occupancy="0.20" waitingTime="0.00" speed="27.54" departed="0" arrived="0" entered="79" left="79" laneChangedFrom="2" laneChangedTo="2"/>
        <edge id="123965879#3" sampledSeconds="443.01" traveltime="5.89" overlapTraveltime="6.07" density="1.52" occupancy="0.25" waitingTime="0.00" speed="27.59" departed="0" arrived="0" entered="73" left="73" laneChangedFrom="2" laneChangedTo="2"/>
        <edge id="123965879#4" sampledSeconds="4551.92" traveltime="63.18" overlapTraveltime="63.36" density="1.45" occupancy="0.24" waitingTime="0.00" speed="27.58" departed="0" arrived="0" entered="73" left="70" laneChangedFrom="25" laneChangedTo="25"/>
        <edge id="123965879#4-AddedOffRampEdge" sampledSeconds="246.34" traveltime="3.34" overlapTraveltime="3.52" density="1.49" occupancy="0.18" waitingTime="0.00" speed="27.61" departed="0" arrived="0" entered="70" left="70" laneChangedFrom="2" laneChangedTo="2"/>
        <edge id="123965879#4-AddedOnRampEdge" sampledSeconds="256.54" traveltime="3.33" overlapTraveltime="3.51" density="1.55" occupancy="0.18" waitingTime="0.00" speed="27.61" departed="0" arrived="0" entered="73" left="73" laneChangedFrom="1" laneChangedTo="1"/>
        <edge id="123966730" sampledSeconds="81.23" traveltime="13.23" overlapTraveltime="13.54" density="0.13" occupancy="0.06" waitingTime="0.00" speed="25.88" departed="0" arrived="0" entered="6" left="6" laneChangedFrom="0" laneChangedTo="0"/>
        <edge id="123967087" sampledSeconds="0.00" departed="0" arrived="0" entered="0" left="0" laneChangedFrom="0" laneChangedTo="0"/>
        <edge id="123967236#0" sampledSeconds="2961.91" traveltime="33.20" overlapTraveltime="33.38" density="1.80" occupancy="0.30" waitingTime="0.00" speed="27.56" departed="0" arrived="0" entered="89" left="88" laneChangedFrom="4" laneChangedTo="4"/>
        <edge id="123967236#1" sampledSeconds="5494.08" traveltime="63.56" overlapTraveltime="63.75" density="1.74" occupancy="0.29" waitingTime="0.00" speed="27.52" departed="0" arrived="0" entered="87" left="86" laneChangedFrom="36" laneChangedTo="36"/>
        <edge id="123967236#1-AddedOffRampEdge" sampledSeconds="302.76" traveltime="3.34" overlapTraveltime="3.52" density="1.83" occupancy="0.22" waitingTime="0.00" speed="27.55" departed="0" arrived="0" entered="86" left="86" laneChangedFrom="2" laneChangedTo="2"/>
        <edge id="123967236#1-AddedOnRampEdge" sampledSeconds="308.71" traveltime="3.34" overlapTraveltime="3.52" density="1.86" occupancy="0.22" waitingTime="0.00" speed="27.53" departed="0" arrived="0" entered="88" left="87" laneChangedFrom="4" laneChangedTo="4"/>
        <edge id="123969747" sampledSeconds="2570.05" traveltime="28.61" overlapTraveltime="28.79" density="1.81" occupancy="0.30" waitingTime="0.00" speed="27.58" departed="0" arrived="0" entered="90" left="89" laneChangedFrom="87" laneChangedTo="87"/>
        <edge id="123969747-AddedOffRampEdge" sampledSeconds="326.18" traveltime="3.48" overlapTraveltime="3.66" density="1.89" occupancy="0.30" waitingTime="0.00" speed="27.56" departed="0" arrived="0" entered="89" left="89" laneChangedFrom="0" laneChangedTo="0"/>
        <edge id="123969747-AddedOnRampEdge" sampledSeconds="297.39" traveltime="3.12" overlapTraveltime="3.30" density="1.92" occupancy="0.30" waitingTime="0.00" speed="27.58" departed="0" arrived="0" entered="90" left="90" laneChangedFrom="2" laneChangedTo="2"/>
        <edge id="128052719" sampledSeconds="0.00" departed="0" arrived="0" entered="0" left="0" laneChangedFrom="0" laneChangedTo="0"/>
        <edge id="128497195" sampledSeconds="9.17" traveltime="4.36" overlapTraveltime="4.59" density="0.06" occupancy="0.03" waitingTime="0.00" speed="18.98" departed="0" arrived="2" entered="2" left="0" laneChangedFrom="0" laneChangedTo="0"/>
        <edge id="128497230#0" sampledSeconds="0.00" departed="0" arrived="0" entered="0" left="0" laneChangedFrom="0" laneChangedTo="0"/>
        <edge id="128497230#1" sampledSeconds="0.00" departed="0" arrived="0" entered="0" left="0" laneChangedFrom="0" laneChangedTo="0"/>
        <edge id="128497230#1-AddedOnRampEdge" sampledSeconds="0.00" departed="0" arrived="0" entered="0" left="0" laneChangedFrom="0" laneChangedTo="0"/>
        <edge id="128497341#0" sampledSeconds="55.01" traveltime="17.99" overlapTraveltime="18.34" density="0.07" occupancy="0.04" waitingTime="0.00" speed="25.91" departed="0" arrived="0" entered="3" left="3" laneChangedFrom="0" laneChangedTo="0"/>
        <edge id="128497436" sampledSeconds="0.00" departed="0" arrived="0" entered="0" left="0" laneChangedFrom="0" laneChangedTo="0"/>
        <edge id="192556113" sampledSeconds="0.00" departed="0" arrived="0" entered="0" left="0" laneChangedFrom="0" laneChangedTo="0"/>
        <edge id="22661029" sampledSeconds="0.00" departed="0" arrived="0" entered="0" left="0" laneChangedFrom="0" laneChangedTo="0"/>
        <edge id="22661030" sampledSeconds="0.00" departed="0" arrived="0" entered="0" left="0" laneChangedFrom="0" laneChangedTo="0"/>
        <edge id="22661031#0" sampledSeconds="0.00" departed="0" arrived="0" entered="0" left="0" laneChangedFrom="0" laneChangedTo="0"/>
        <edge id="22780363" sampledSeconds="32.86" traveltime="16.29" overlapTraveltime="16.53" density="0.06" occupancy="0.03" waitingTime="0.00" speed="20.29" departed="0" arrived="2" entered="2" left="0" laneChangedFrom="0" laneChangedTo="0"/>
        <edge id="22907436" sampledSeconds="5.73" traveltime="1.64" overlapTraveltime="1.91" density="0.09" occupancy="0.04" waitingTime="0.00" speed="21.39" departed="0" arrived="0" entered="3" left="3" laneChangedFrom="0" laneChangedTo="0"/>
        <edge id="22907450" sampledSeconds="0.00" departed="0" arrived="0" entered="0" left="0" laneChangedFrom="0" laneChangedTo="0"/>
        <edge id="22907452" sampledSeconds="0.00" departed="0" arrived="0" entered="0" left="0" laneChangedFrom="0" laneChangedTo="0"/>
        <edge id="22907453" sampledSeconds="0.00" departed="0" arrived="0" entered="0" left="0" laneChangedFrom="0" laneChangedTo="0"/>
        <edge id="23565360#0" sampledSeconds="0.00" departed="0" arrived="0" entered="0" left="0" laneChangedFrom="0" laneChangedTo="0"/>
        <edge id="24644789" sampledSeconds="72.47" traveltime="17.94" overlapTraveltime="18.17" density="0.11" occupancy="0.03" waitingTime="0.00" speed="21.35" departed="0" arrived="4" entered="4" left="0" laneChangedFrom="0" laneChangedTo="0"/>
        <edge id="24644790" sampledSeconds="0.00" departed="0" arrived="0" entered="0" left="0" laneChangedFrom="0" laneChangedTo="0"/>
        <edge id="25508818" sampledSeconds="0.00" departed="0" arrived="0" entered="0" left="0" laneChangedFrom="0" laneChangedTo="0"/>
        <edge id="25750596" sampledSeconds="0.00" departed="0" arrived="0" entered="0" left="0" laneChangedFrom="0" laneChangedTo="0"/>
        <edge id="25750689" sampledSeconds="11.45" traveltime="5.39" overlapTraveltime="5.72" density="0.05" occupancy="0.03" waitingTime="0.00" speed="21.13" departed="0" arrived="0" entered="2" left="2" laneChangedFrom="0" laneChangedTo="0"/>
        <edge id="27352484#0" sampledSeconds="21.46" traveltime="6.80" overlapTraveltime="7.15" density="0.07" occupancy="0.03" waitingTime="0.00" speed="24.54" departed="0" arrived="0" entered="3" left="3" laneChangedFrom="0" laneChangedTo="0"/>
        <edge id="27352485" sampledSeconds="0.00" departed="0" arrived="0" entered="0" left="0" laneChangedFrom="0" laneChangedTo="0"/>
        <edge id="275503308#0" sampledSeconds="0.00" departed="0" arrived="0" entered="0" left="0" laneChangedFrom="0" laneChangedTo="0"/>
        <edge id="275503308#1" sampledSeconds="0.00" departed="0" arrived="0" entered="0" left="0" laneChangedFrom="0" laneChangedTo="0"/>
        <edge id="275503308#1-AddedOnRampEdge" sampledSeconds="0.00" departed="0" arrived="0" entered="0" left="0" laneChangedFrom="0" laneChangedTo="0"/>
        <edge id="275503314" sampledSeconds="0.00" departed="0" arrived="0" entered="0" left="0" laneChangedFrom="0" laneChangedTo="0"/>
        <edge id="275503318#0" sampledSeconds="0.00" departed="0" arrived="0" entered="0" left="0" laneChangedFrom="0" laneChangedTo="0"/>
        <edge id="29334378" sampledSeconds="0.00" departed="0" arrived="0" entered="0" left="0" laneChangedFrom="0" laneChangedTo="0"/>
        <edge id="29334379" sampledSeconds="3.65" traveltime="3.43" overlapTraveltime="3.65" density="0.03" occupancy="0.01" waitingTime="0.00" speed="22.54" departed="0" arrived="0" entered="1" left="1" laneChangedFrom="0" laneChangedTo="0"/>
        <edge id="29334729" sampledSeconds="0.00" departed="0" arrived="0" entered="0" left="0" laneChangedFrom="0" laneChangedTo="0"/>
        <edge id="32015714#0" sampledSeconds="2998.56" traveltime="66.22" overlapTraveltime="66.38" density="0.76" occupancy="0.19" waitingTime="0.00" speed="32.97" departed="94" arrived="0" entered="0" left="93" laneChangedFrom="58" laneChangedTo="58"/>
        <edge id="32015714#0-AddedOffRampEdge" sampledSeconds="273.48" traveltime="2.79" overlapTraveltime="2.94" density="1.65" occupancy="0.26" waitingTime="0.00" speed="32.99" departed="0" arrived="0" entered="93" left="93" laneChangedFrom="5" laneChangedTo="5"/>
        <edge id="32015714#1" sampledSeconds="1017.64" traveltime="11.00" overlapTraveltime="11.18" density="1.57" occupancy="0.39" waitingTime="0.00" speed="32.68" departed="0" arrived="0" entered="91" left="91" laneChangedFrom="14" laneChangedTo="14"/>
        <edge id="321265666#1" sampledSeconds="293.49" traveltime="4.20" overlapTraveltime="4.38" density="1.41" occupancy="0.23" waitingTime="0.00" speed="27.56" departed="0" arrived="0" entered="67" left="67" laneChangedFrom="1" laneChangedTo="1"/>
        <edge id="321265666#2" sampledSeconds="231.66" traveltime="3.28" overlapTraveltime="3.46" density="1.43" occupancy="0.23" waitingTime="0.00" speed="27.54" departed="0" arrived="0" entered="67" left="67" laneChangedFrom="1" laneChangedTo="1"/>
        <edge id="321265666#2-AddedOffRampEdge" sampledSeconds="236.08" traveltime="3.34" overlapTraveltime="3.52" density="1.43" occupancy="0.17" waitingTime="0.00" speed="27.52" departed="0" arrived="0" entered="67" left="67" laneChangedFrom="0" laneChangedTo="0"/>
        <edge id="321265666#2-AddedOnRampEdge" sampledSeconds="236.38" traveltime="3.35" overlapTraveltime="3.53" density="1.42" occupancy="0.17" waitingTime="0.00" speed="27.55" departed="0" arrived="0" entered="67" left="67" laneChangedFrom="1" laneChangedTo="1"/>
        <edge id="321279636#1" sampledSeconds="78.19" traveltime="0.99" overlapTraveltime="1.17" density="1.60" occupancy="0.23" waitingTime="0.00" speed="27.52" departed="0" arrived="0" entered="67" left="67" laneChangedFrom="0" laneChangedTo="0"/>
        <edge id="321279636#2" sampledSeconds="901.55" traveltime="13.27" overlapTraveltime="13.46" density="1.37" occupancy="0.23" waitingTime="0.00" speed="27.49" departed="0" arrived="0" entered="67" left="67" laneChangedFrom="5" laneChangedTo="5"/>
        <edge id="321279636#2-AddedOffRampEdge" sampledSeconds="235.24" traveltime="3.33" overlapTraveltime="3.51" density="1.43" occupancy="0.17" waitingTime="0.00" speed="27.52" departed="0" arrived="0" entered="67" left="67" laneChangedFrom="1" laneChangedTo="1"/>
        <edge id="321279636#2-AddedOnRampEdge" sampledSeconds="235.70" traveltime="3.34" overlapTraveltime="3.52" density="1.43" occupancy="0.17" waitingTime="0.00" speed="27.51" departed="0" arrived="0" entered="67" left="67" laneChangedFrom="1" laneChangedTo="1"/>
        <edge id="321279636#3" sampledSeconds="103.51" traveltime="1.36" overlapTraveltime="1.54" density="1.53" occupancy="0.23" waitingTime="0.00" speed="27.53" departed="0" arrived="0" entered="67" left="67" laneChangedFrom="0" laneChangedTo="0"/>
        <edge id="321279636#4" sampledSeconds="1482.05" traveltime="21.94" overlapTraveltime="22.12" density="1.36" occupancy="0.22" waitingTime="0.00" speed="27.59" departed="0" arrived="0" entered="67" left="67" laneChangedFrom="12" laneChangedTo="12"/>
        <edge id="321279636#4-AddedOffRampEdge" sampledSeconds="235.01" traveltime="3.33" overlapTraveltime="3.51" density="1.42" occupancy="0.17" waitingTime="0.00" speed="27.63" departed="0" arrived="0" entered="67" left="67" laneChangedFrom="1" laneChangedTo="1"/>
        <edge id="321279636#4-AddedOnRampEdge" sampledSeconds="235.76" traveltime="3.34" overlapTraveltime="3.52" density="1.43" occupancy="0.17" waitingTime="0.00" speed="27.52" departed="0" arrived="0" entered="67" left="67" laneChangedFrom="1" laneChangedTo="1"/>
        <edge id="321279636#5" sampledSeconds="3574.41" traveltime="54.89" overlapTraveltime="55.07" density="1.31" occupancy="0.22" waitingTime="0.00" speed="27.58" departed="0" arrived="0" entered="67" left="63" laneChangedFrom="24" laneChangedTo="24"/>
        <edge id="325686453#1" sampledSeconds="8169.39" traveltime="34.17" overlapTraveltime="34.36" density="4.87" occupancy="0.81" waitingTime="0.00" speed="27.30" departed="0" arrived="0" entered="239" left="237" laneChangedFrom="70" laneChangedTo="70"/>
        <edge id="325686453#1-AddedOffRampEdge" sampledSeconds="844.11" traveltime="3.38" overlapTraveltime="3.56" density="5.10" occupancy="0.61" waitingTime="0.00" speed="27.24" departed="0" arrived="0" entered="237" left="237" laneChangedFrom="10" laneChangedTo="10"/>
        <edge id="325686453#1-AddedOnRampEdge" sampledSeconds="858.25" traveltime="3.41" overlapTraveltime="3.59" density="5.11" occupancy="0.61" waitingTime="0.00" speed="27.37" departed="0" arrived="0" entered="239" left="239" laneChangedFrom="10" laneChangedTo="10"/>
        <edge id="325686453#4" sampledSeconds="1888.41" traveltime="7.88" overlapTraveltime="8.07" density="4.88" occupancy="0.80" waitingTime="0.00" speed="27.26" departed="0" arrived="0" entered="235" left="233" laneChangedFrom="17" laneChangedTo="17"/>
        <edge id="325686453#5" sampledSeconds="896.93" traveltime="3.68" overlapTraveltime="3.87" density="4.96" occupancy="0.79" waitingTime="0.00" speed="27.27" departed="0" arrived="0" entered="232" left="232" laneChangedFrom="4" laneChangedTo="4"/>
        <edge id="325686453#5-AddedOffRampEdge" sampledSeconds="823.03" traveltime="3.37" overlapTraveltime="3.55" density="4.98" occupancy="0.59" waitingTime="0.00" speed="27.28" departed="0" arrived="0" entered="232" left="231" laneChangedFrom="7" laneChangedTo="7"/>
        <edge id="325686453#5-AddedOnRampEdge" sampledSeconds="828.32" traveltime="3.37" overlapTraveltime="3.56" density="5.00" occupancy="0.59" waitingTime="0.00" speed="27.29" departed="0" arrived="0" entered="233" left="232" laneChangedFrom="5" laneChangedTo="5"/>
        <edge id="325686453#6" sampledSeconds="1743.33" traveltime="7.46" overlapTraveltime="7.65" density="4.76" occupancy="0.78" waitingTime="0.00" speed="27.27" departed="0" arrived="0" entered="228" left="228" laneChangedFrom="12" laneChangedTo="12"/>
        <edge id="325686453#6-AddedOffRampEdge" sampledSeconds="808.77" traveltime="3.37" overlapTraveltime="3.56" density="4.88" occupancy="0.58" waitingTime="0.00" speed="27.28" departed="0" arrived="0" entered="228" left="227" laneChangedFrom="13" laneChangedTo="13"/>
        <edge id="325686453#7" sampledSeconds="3954.45" traveltime="17.27" overlapTraveltime="17.46" density="4.67" occupancy="0.77" waitingTime="0.00" speed="27.25" departed="0" arrived="0" entered="227" left="225" laneChangedFrom="23" laneChangedTo="23"/>
        <edge id="325686453#8" sampledSeconds="15889.80" traveltime="71.97" overlapTraveltime="72.15" density="4.51" occupancy="0.75" waitingTime="0.00" speed="27.22" departed="0" arrived="0" entered="225" left="216" laneChangedFrom="207" laneChangedTo="207"/>
        <edge id="325686453#8-AddedOffRampEdge" sampledSeconds="770.03" traveltime="3.39" overlapTraveltime="3.57" density="4.65" occupancy="0.55" waitingTime="0.00" speed="27.15" departed="0" arrived="0" entered="216" left="215" laneChangedFrom="4" laneChangedTo="4"/>
        <edge id="325686453#8-AddedOnRampEdge" sampledSeconds="804.07" traveltime="3.39" overlapTraveltime="3.57" density="4.84" occupancy="0.58" waitingTime="0.00" speed="27.25" departed="0" arrived="0" entered="225" left="225" laneChangedFrom="18" laneChangedTo="18"/>
        <edge id="327268097#1" sampledSeconds="2314.94" traveltime="36.67" overlapTraveltime="36.86" density="1.27" occupancy="0.21" waitingTime="0.00" speed="27.61" departed="0" arrived="62" entered="63" left="0" laneChangedFrom="6" laneChangedTo="6"/>
        <edge id="327268097#1-AddedOnRampEdge" sampledSeconds="222.16" traveltime="3.35" overlapTraveltime="3.53" density="1.34" occupancy="0.16" waitingTime="0.00" speed="27.60" departed="0" arrived="0" entered="63" left="63" laneChangedFrom="1" laneChangedTo="1"/>
        <edge id="38245579#0" sampledSeconds="1456.48" traveltime="8.94" overlapTraveltime="9.10" density="2.86" occupancy="0.70" waitingTime="0.00" speed="31.66" departed="0" arrived="0" entered="161" left="160" laneChangedFrom="8" laneChangedTo="8"/>
        <edge id="38245579#1" sampledSeconds="10549.95" traveltime="68.70" overlapTraveltime="68.85" density="2.60" occupancy="0.65" waitingTime="0.00" speed="32.80" departed="0" arrived="149" entered="159" left="0" laneChangedFrom="80" laneChangedTo="80"/>
        <edge id="38245579#1-AddedOnRampEdge" sampledSeconds="473.91" traveltime="2.82" overlapTraveltime="2.97" density="2.86" occupancy="0.45" waitingTime="0.00" speed="32.75" departed="0" arrived="0" entered="160" left="159" laneChangedFrom="7" laneChangedTo="7"/>
        <edge id="398588970" sampledSeconds="0.00" departed="0" arrived="0" entered="0" left="0" laneChangedFrom="0" laneChangedTo="0"/>
        <edge id="40388800" sampledSeconds="1049.93" traveltime="11.43" overlapTraveltime="11.61" density="1.85" occupancy="0.46" waitingTime="0.00" speed="27.59" departed="0" arrived="0" entered="91" left="90" laneChangedFrom="2" laneChangedTo="2"/>
        <edge id="4258460" sampledSeconds="4685.41" traveltime="28.92" overlapTraveltime="29.10" density="3.30" occupancy="0.82" waitingTime="0.00" speed="27.31" departed="0" arrived="0" entered="161" left="161" laneChangedFrom="32" laneChangedTo="32"/>
        <edge id="4258491" sampledSeconds="9.58" traveltime="4.41" overlapTraveltime="4.79" density="0.06" occupancy="0.03" waitingTime="0.00" speed="19.94" departed="0" arrived="0" entered="2" left="2" laneChangedFrom="0" laneChangedTo="0"/>
        <edge id="42872148#0" sampledSeconds="0.00" departed="0" arrived="0" entered="0" left="0" laneChangedFrom="0" laneChangedTo="0"/>
        <edge id="42872148#1" sampledSeconds="0.00" departed="0" arrived="0" entered="0" left="0" laneChangedFrom="0" laneChangedTo="0"/>
        <edge id="42872148#1-AddedOnRampEdge" sampledSeconds="0.00" departed="0" arrived="0" entered="0" left="0" laneChangedFrom="0" laneChangedTo="0"/>