<?xml version="1.0" encoding="UTF-8"?>

<!-- generated on 12/11/19 10:48:35 by Eclipse SUMO dfrouter Version 1.3.1
<configuration xmlns:xsi="http://www.w3.org/2001/XMLSchema-instance" xsi:noNamespaceSchemaLocation="http://sumo.dlr.de/xsd/dfrouterConfiguration.xsd">

    <input>
        <net-file value="N7_network.net.xml"/>
        <detector-files value="N7_detectors.det.xml"/>
        <measure-files value="N7_flows.csv"/>
    </input>

    <output>
        <routes-output value="N7_routes.rou.xml"/>
        <detectors-poi-output value="N7_detectors.poi.xml"/>
        <emitters-output value="N7_emitters.emi.xml"/>
        <vtype value="true"/>
        <vtype-output value="dfrouter-vtypes.add.xml"/>
    </output>

    <processing>
        <max-search-depth value="250"/>
        <time-factor value="1"/>
        <time-step value="300"/>
        <scale value="0.95"/>
    </processing>

    <defaults>
        <departlane value="best"/>
        <departpos value="random_free"/>
        <departspeed value="max"/>
        <arrivalpos value="max"/>
    </defaults>

</configuration>
-->

<routes xmlns:xsi="http://www.w3.org/2001/XMLSchema-instance" xsi:noNamespaceSchemaLocation="http://sumo.dlr.de/xsd/routes_file.xsd">

    <route id="32015714#0_to_22780363" edges="32015714#0 32015714#0-AddedOffRampEdge 22780363"/>
    <route id="32015714#0_to_58670754" edges="32015714#0 32015714#0-AddedOffRampEdge 32015714#1 40388800 123969747-AddedOnRampEdge 123969747 123969747-AddedOffRampEdge 123960426 58670754"/>
    <route id="32015714#0_to_58738830" edges="32015714#0 32015714#0-AddedOffRampEdge 32015714#1 40388800 123969747-AddedOnRampEdge 123969747 123969747-AddedOffRampEdge 123967236#0 123967236#1-AddedOnRampEdge 123967236#1 123967236#1-AddedOffRampEdge 123966730 58738830"/>
    <route id="32015714#0_to_-128052719" edges="32015714#0 32015714#0-AddedOffRampEdge 32015714#1 40388800 123969747-AddedOnRampEdge 123969747 123969747-AddedOffRampEdge 123967236#0 123967236#1-AddedOnRampEdge 123967236#1 123967236#1-AddedOffRampEdge 123965879#0 123965879#1-AddedOnRampEdge 123965879#1 123965879#1-AddedOffRampEdge 29334379 -128052719"/>
    <route id="32015714#0_to_22907450" edges="32015714#0 32015714#0-AddedOffRampEdge 32015714#1 40388800 123969747-AddedOnRampEdge 123969747 123969747-AddedOffRampEdge 123967236#0 123967236#1-AddedOnRampEdge 123967236#1 123967236#1-AddedOffRampEdge 123965879#0 123965879#1-AddedOnRampEdge 123965879#1 123965879#1-AddedOffRampEdge 123965879#3 123965879#4-AddedOnRampEdge 123965879#4 123965879#4-AddedOffRampEdge 22907452 496427590 -123961786 22907450"/>
    <route id="32015714#0_to_86382126" edges="32015714#0 32015714#0-AddedOffRampEdge 32015714#1 40388800 123969747-AddedOnRampEdge 123969747 123969747-AddedOffRampEdge 123967236#0 123967236#1-AddedOnRampEdge 123967236#1 123967236#1-AddedOffRampEdge 123965879#0 123965879#1-AddedOnRampEdge 123965879#1 123965879#1-AddedOffRampEdge 123965879#3 123965879#4-AddedOnRampEdge 123965879#4 123965879#4-AddedOffRampEdge 123961229#0 123961229#1-AddedOnRampEdge 123961229#1 123961229#1-AddedOffRampEdge 321265666#1 321265666#2-AddedOnRampEdge 321265666#2 321265666#2-AddedOffRampEdge 275503314 86382126"/>
    <route id="32015714#0_to_22661031#0" edges="32015714#0 32015714#0-AddedOffRampEdge 32015714#1 40388800 123969747-AddedOnRampEdge 123969747 123969747-AddedOffRampEdge 123967236#0 123967236#1-AddedOnRampEdge 123967236#1 123967236#1-AddedOffRampEdge 123965879#0 123965879#1-AddedOnRampEdge 123965879#1 123965879#1-AddedOffRampEdge 123965879#3 123965879#4-AddedOnRampEdge 123965879#4 123965879#4-AddedOffRampEdge 123961229#0 123961229#1-AddedOnRampEdge 123961229#1 123961229#1-AddedOffRampEdge 22661030 22661031#0"/>
    <route id="32015714#0_to_86382092" edges="32015714#0 32015714#0-AddedOffRampEdge 32015714#1 40388800 123969747-AddedOnRampEdge 123969747 123969747-AddedOffRampEdge 123967236#0 123967236#1-AddedOnRampEdge 123967236#1 123967236#1-AddedOffRampEdge 123965879#0 123965879#1-AddedOnRampEdge 123965879#1 123965879#1-AddedOffRampEdge 123965879#3 123965879#4-AddedOnRampEdge 123965879#4 123965879#4-AddedOffRampEdge 123961229#0 123961229#1-AddedOnRampEdge 123961229#1 123961229#1-AddedOffRampEdge 321265666#1 321265666#2-AddedOnRampEdge 321265666#2 321265666#2-AddedOffRampEdge 321279636#1 321279636#2-AddedOnRampEdge 321279636#2 321279636#2-AddedOffRampEdge 86382110 86382092"/>
    <route id="32015714#0_to_128497230#1" edges="32015714#0 32015714#0-AddedOffRampEdge 32015714#1 40388800 123969747-AddedOnRampEdge 123969747 123969747-AddedOffRampEdge 123967236#0 123967236#1-AddedOnRampEdge 123967236#1 123967236#1-AddedOffRampEdge 123965879#0 123965879#1-AddedOnRampEdge 123965879#1 123965879#1-AddedOffRampEdge 123965879#3 123965879#4-AddedOnRampEdge 123965879#4 123965879#4-AddedOffRampEdge 123961229#0 123961229#1-AddedOnRampEdge 123961229#1 123961229#1-AddedOffRampEdge 321265666#1 321265666#2-AddedOnRampEdge 321265666#2 321265666#2-AddedOffRampEdge 321279636#1 321279636#2-AddedOnRampEdge 321279636#2 321279636#2-AddedOffRampEdge 321279636#3 321279636#4-AddedOnRampEdge 321279636#4 321279636#4-AddedOffRampEdge 128497230#0 128497230#1-AddedOnRampEdge 128497230#1"/>
    <route id="32015714#0_to_327268097#1" edges="32015714#0 32015714#0-AddedOffRampEdge 32015714#1 40388800 123969747-AddedOnRampEdge 123969747 123969747-AddedOffRampEdge 123967236#0 123967236#1-AddedOnRampEdge 123967236#1 123967236#1-AddedOffRampEdge 123965879#0 123965879#1-AddedOnRampEdge 123965879#1 123965879#1-AddedOffRampEdge 123965879#3 123965879#4-AddedOnRampEdge 123965879#4 123965879#4-AddedOffRampEdge 123961229#0 123961229#1-AddedOnRampEdge 123961229#1 123961229#1-AddedOffRampEdge 321265666#1 321265666#2-AddedOnRampEdge 321265666#2 321265666#2-AddedOffRampEdge 321279636#1 321279636#2-AddedOnRampEdge 321279636#2 321279636#2-AddedOffRampEdge 321279636#3 321279636#4-AddedOnRampEdge 321279636#4 321279636#4-AddedOffRampEdge 321279636#5 327268097#1-AddedOnRampEdge 327268097#1"/>

    <route id="123962130.2472_to_86291441" edges="123962130.2472 123962130-AddedOffRampEdge 86291441"/>
    <route id="123962130.2472_to_-8296126#3" edges="123962130.2472 123962130-AddedOffRampEdge 123962072 325686453#1-AddedOnRampEdge 325686453#1 325686453#1-AddedOffRampEdge 25750689 -8296126#3"/>
    <route id="123962130.2472_to_-275503318#2" edges="123962130.2472 123962130-AddedOffRampEdge 123962072 325686453#1-AddedOnRampEdge 325686453#1 325686453#1-AddedOffRampEdge 325686453#4 325686453#5-AddedOnRampEdge 325686453#5 325686453#5-AddedOffRampEdge 27352484#0 496431115 -275503318#2"/>
    <route id="123962130.2472_to_-123961980" edges="123962130.2472 123962130-AddedOffRampEdge 123962072 325686453#1-AddedOnRampEdge 325686453#1 325686453#1-AddedOffRampEdge 325686453#4 325686453#5-AddedOnRampEdge 325686453#5 325686453#5-AddedOffRampEdge 325686453#6 325686453#6-AddedOffRampEdge 325686453#7 325686453#8-AddedOnRampEdge 325686453#8 325686453#8-AddedOffRampEdge 22907436 -123961980"/>
    <route id="123962130.2472_to_128497195" edges="123962130.2472 123962130-AddedOffRampEdge 123962072 325686453#1-AddedOnRampEdge 325686453#1 325686453#1-AddedOffRampEdge 325686453#4 325686453#5-AddedOnRampEdge 325686453#5 325686453#5-AddedOffRampEdge 325686453#6 325686453#6-AddedOffRampEdge 325686453#7 325686453#8-AddedOnRampEdge 325686453#8 325686453#8-AddedOffRampEdge 123961236#0 123961236#1-AddedOnRampEdge 123961236#1 123961236#1-AddedOffRampEdge 4258491 128497195"/>
    <route id="123962130.2472_to_58738832" edges="123962130.2472 123962130-AddedOffRampEdge 123962072 325686453#1-AddedOnRampEdge 325686453#1 325686453#1-AddedOffRampEdge 325686453#4 325686453#5-AddedOnRampEdge 325686453#5 325686453#5-AddedOffRampEdge 325686453#6 325686453#6-AddedOffRampEdge 325686453#7 325686453#8-AddedOnRampEdge 325686453#8 325686453#8-AddedOffRampEdge 123961236#0 123961236#1-AddedOnRampEdge 123961236#1 123961236#1-AddedOffRampEdge 123961236#6 123961236#7-AddedOnRampEdge 123961236#7 123961236#7-AddedOffRampEdge 128497341#0 58738832"/>
    <route id="123962130.2472_to_58670761" edges="123962130.2472 123962130-AddedOffRampEdge 123962072 325686453#1-AddedOnRampEdge 325686453#1 325686453#1-AddedOffRampEdge 325686453#4 325686453#5-AddedOnRampEdge 325686453#5 325686453#5-AddedOffRampEdge 325686453#6 325686453#6-AddedOffRampEdge 325686453#7 325686453#8-AddedOnRampEdge 325686453#8 325686453#8-AddedOffRampEdge 123961236#0 123961236#1-AddedOnRampEdge 123961236#1 123961236#1-AddedOffRampEdge 123961236#6 123961236#7-AddedOnRampEdge 123961236#7 123961236#7-AddedOffRampEdge 123961236#8 123961236#9-AddedOnRampEdge 123961236#9 123961236#9-AddedOffRampEdge 123960179 58670761"/>
    <route id="123962130.2472_to_24644789" edges="123962130.2472 123962130-AddedOffRampEdge 123962072 325686453#1-AddedOnRampEdge 325686453#1 325686453#1-AddedOffRampEdge 325686453#4 325686453#5-AddedOnRampEdge 325686453#5 325686453#5-AddedOffRampEdge 325686453#6 325686453#6-AddedOffRampEdge 325686453#7 325686453#8-AddedOnRampEdge 325686453#8 325686453#8-AddedOffRampEdge 123961236#0 123961236#1-AddedOnRampEdge 123961236#1 123961236#1-AddedOffRampEdge 123961236#6 123961236#7-AddedOnRampEdge 123961236#7 123961236#7-AddedOffRampEdge 123961236#8 123961236#9-AddedOnRampEdge 123961236#9 123961236#9-AddedOffRampEdge 123961236#12 123961236#13-AddedOnRampEdge 123961236#13 123961236#13-AddedOffRampEdge 24644789"/>
    <route id="123962130.2472_to_38245579#1" edges="123962130.2472 123962130-AddedOffRampEdge 123962072 325686453#1-AddedOnRampEdge 325686453#1 325686453#1-AddedOffRampEdge 325686453#4 325686453#5-AddedOnRampEdge 325686453#5 325686453#5-AddedOffRampEdge 325686453#6 325686453#6-AddedOffRampEdge 325686453#7 325686453#8-AddedOnRampEdge 325686453#8 325686453#8-AddedOffRampEdge 123961236#0 123961236#1-AddedOnRampEdge 123961236#1 123961236#1-AddedOffRampEdge 123961236#6 123961236#7-AddedOnRampEdge 123961236#7 123961236#7-AddedOffRampEdge 123961236#8 123961236#9-AddedOnRampEdge 123961236#9 123961236#9-AddedOffRampEdge 123961236#12 123961236#13-AddedOnRampEdge 123961236#13 123961236#13-AddedOffRampEdge 4258460 38245579#0 38245579#1-AddedOnRampEdge 38245579#1"/>

    <route id="24644790_to_38245579#1" edges="24644790 38245579#1-AddedOnRampEdge 38245579#1"/>

    <route id="29334729_to_58670754" edges="29334729 123959844 123969747-AddedOnRampEdge 123969747 123969747-AddedOffRampEdge 123960426 58670754"/>
    <route id="29334729_to_58738830" edges="29334729 123959844 123969747-AddedOnRampEdge 123969747 123969747-AddedOffRampEdge 123967236#0 123967236#1-AddedOnRampEdge 123967236#1 123967236#1-AddedOffRampEdge 123966730 58738830"/>
    <route id="29334729_to_-128052719" edges="29334729 123959844 123969747-AddedOnRampEdge 123969747 123969747-AddedOffRampEdge 123967236#0 123967236#1-AddedOnRampEdge 123967236#1 123967236#1-AddedOffRampEdge 123965879#0 123965879#1-AddedOnRampEdge 123965879#1 123965879#1-AddedOffRampEdge 29334379 -128052719"/>
    <route id="29334729_to_22907450" edges="29334729 123959844 123969747-AddedOnRampEdge 123969747 123969747-AddedOffRampEdge 123967236#0 123967236#1-AddedOnRampEdge 123967236#1 123967236#1-AddedOffRampEdge 123965879#0 123965879#1-AddedOnRampEdge 123965879#1 123965879#1-AddedOffRampEdge 123965879#3 123965879#4-AddedOnRampEdge 123965879#4 123965879#4-AddedOffRampEdge 22907452 496427590 -123961786 22907450"/>
    <route id="29334729_to_86382126" edges="29334729 123959844 123969747-AddedOnRampEdge 123969747 123969747-AddedOffRampEdge 123967236#0 123967236#1-AddedOnRampEdge 123967236#1 123967236#1-AddedOffRampEdge 123965879#0 123965879#1-AddedOnRampEdge 123965879#1 123965879#1-AddedOffRampEdge 123965879#3 123965879#4-AddedOnRampEdge 123965879#4 123965879#4-AddedOffRampEdge 123961229#0 123961229#1-AddedOnRampEdge 123961229#1 123961229#1-AddedOffRampEdge 321265666#1 321265666#2-AddedOnRampEdge 321265666#2 321265666#2-AddedOffRampEdge 275503314 86382126"/>
    <route id="29334729_to_22661031#0" edges="29334729 123959844 123969747-AddedOnRampEdge 123969747 123969747-AddedOffRampEdge 123967236#0 123967236#1-AddedOnRampEdge 123967236#1 123967236#1-AddedOffRampEdge 123965879#0 123965879#1-AddedOnRampEdge 123965879#1 123965879#1-AddedOffRampEdge 123965879#3 123965879#4-AddedOnRampEdge 123965879#4 123965879#4-AddedOffRampEdge 123961229#0 123961229#1-AddedOnRampEdge 123961229#1 123961229#1-AddedOffRampEdge 22661030 22661031#0"/>
    <route id="29334729_to_86382092" edges="29334729 123959844 123969747-AddedOnRampEdge 123969747 123969747-AddedOffRampEdge 123967236#0 123967236#1-AddedOnRampEdge 123967236#1 123967236#1-AddedOffRampEdge 123965879#0 123965879#1-AddedOnRampEdge 123965879#1 123965879#1-AddedOffRampEdge 123965879#3 123965879#4-AddedOnRampEdge 123965879#4 123965879#4-AddedOffRampEdge 123961229#0 123961229#1-AddedOnRampEdge 123961229#1 123961229#1-AddedOffRampEdge 321265666#1 321265666#2-AddedOnRampEdge 321265666#2 321265666#2-AddedOffRampEdge 321279636#1 321279636#2-AddedOnRampEdge 321279636#2 321279636#2-AddedOffRampEdge 86382110 86382092"/>
    <route id="29334729_to_128497230#1" edges="29334729 123959844 123969747-AddedOnRampEdge 123969747 123969747-AddedOffRampEdge 123967236#0 123967236#1-AddedOnRampEdge 123967236#1 123967236#1-AddedOffRampEdge 123965879#0 123965879#1-AddedOnRampEdge 123965879#1 123965879#1-AddedOffRampEdge 123965879#3 123965879#4-AddedOnRampEdge 123965879#4 123965879#4-AddedOffRampEdge 123961229#0 123961229#1-AddedOnRampEdge 123961229#1 123961229#1-AddedOffRampEdge 321265666#1 321265666#2-AddedOnRampEdge 321265666#2 321265666#2-AddedOffRampEdge 321279636#1 321279636#2-AddedOnRampEdge 321279636#2 321279636#2-AddedOffRampEdge 321279636#3 321279636#4-AddedOnRampEdge 321279636#4 321279636#4-AddedOffRampEdge 128497230#0 128497230#1-AddedOnRampEdge 128497230#1"/>
    <route id="29334729_to_327268097#1" edges="29334729 123959844 123969747-AddedOnRampEdge 123969747 123969747-AddedOffRampEdge 123967236#0 123967236#1-AddedOnRampEdge 123967236#1 123967236#1-AddedOffRampEdge 123965879#0 123965879#1-AddedOnRampEdge 123965879#1 123965879#1-AddedOffRampEdge 123965879#3 123965879#4-AddedOnRampEdge 123965879#4 123965879#4-AddedOffRampEdge 123961229#0 123961229#1-AddedOnRampEdge 123961229#1 123961229#1-AddedOffRampEdge 321265666#1 321265666#2-AddedOnRampEdge 321265666#2 321265666#2-AddedOffRampEdge 321279636#1 321279636#2-AddedOnRampEdge 321279636#2 321279636#2-AddedOffRampEdge 321279636#3 321279636#4-AddedOnRampEdge 321279636#4 321279636#4-AddedOffRampEdge 321279636#5 327268097#1-AddedOnRampEdge 327268097#1"/>

    <route id="123960508_to_24644789" edges="123960508 58670760 123961236#13-AddedOnRampEdge 123961236#13 123961236#13-AddedOffRampEdge 24644789"/>
    <route id="123960508_to_38245579#1" edges="123960508 58670760 123961236#13-AddedOnRampEdge 123961236#13 123961236#13-AddedOffRampEdge 4258460 38245579#0 38245579#1-AddedOnRampEdge 38245579#1"/>

    <route id="123959660_to_58738830" edges="123959660 65596457 123967236#1-AddedOnRampEdge 123967236#1 123967236#1-AddedOffRampEdge 123966730 58738830"/>
    <route id="123959660_to_-128052719" edges="123959660 65596457 123967236#1-AddedOnRampEdge 123967236#1 123967236#1-AddedOffRampEdge 123965879#0 123965879#1-AddedOnRampEdge 123965879#1 123965879#1-AddedOffRampEdge 29334379 -128052719"/>
    <route id="123959660_to_22907450" edges="123959660 65596457 123967236#1-AddedOnRampEdge 123967236#1 123967236#1-AddedOffRampEdge 123965879#0 123965879#1-AddedOnRampEdge 123965879#1 123965879#1-AddedOffRampEdge 123965879#3 123965879#4-AddedOnRampEdge 123965879#4 123965879#4-AddedOffRampEdge 22907452 496427590 -123961786 22907450"/>
    <route id="123959660_to_86382126" edges="123959660 65596457 123967236#1-AddedOnRampEdge 123967236#1 123967236#1-AddedOffRampEdge 123965879#0 123965879#1-AddedOnRampEdge 123965879#1 123965879#1-AddedOffRampEdge 123965879#3 123965879#4-AddedOnRampEdge 123965879#4 123965879#4-AddedOffRampEdge 123961229#0 123961229#1-AddedOnRampEdge 123961229#1 123961229#1-AddedOffRampEdge 321265666#1 321265666#2-AddedOnRampEdge 321265666#2 321265666#2-AddedOffRampEdge 275503314 86382126"/>
    <route id="123959660_to_22661031#0" edges="123959660 65596457 123967236#1-AddedOnRampEdge 123967236#1 123967236#1-AddedOffRampEdge 123965879#0 123965879#1-AddedOnRampEdge 123965879#1 123965879#1-AddedOffRampEdge 123965879#3 123965879#4-AddedOnRampEdge 123965879#4 123965879#4-AddedOffRampEdge 123961229#0 123961229#1-AddedOnRampEdge 123961229#1 123961229#1-AddedOffRampEdge 22661030 22661031#0"/>
    <route id="123959660_to_86382092" edges="123959660 65596457 123967236#1-AddedOnRampEdge 123967236#1 123967236#1-AddedOffRampEdge 123965879#0 123965879#1-AddedOnRampEdge 123965879#1 123965879#1-AddedOffRampEdge 123965879#3 123965879#4-AddedOnRampEdge 123965879#4 123965879#4-AddedOffRampEdge 123961229#0 123961229#1-AddedOnRampEdge 123961229#1 123961229#1-AddedOffRampEdge 321265666#1 321265666#2-AddedOnRampEdge 321265666#2 321265666#2-AddedOffRampEdge 321279636#1 321279636#2-AddedOnRampEdge 321279636#2 321279636#2-AddedOffRampEdge 86382110 86382092"/>
    <route id="123959660_to_128497230#1" edges="123959660 65596457 123967236#1-AddedOnRampEdge 123967236#1 123967236#1-AddedOffRampEdge 123965879#0 123965879#1-AddedOnRampEdge 123965879#1 123965879#1-AddedOffRampEdge 123965879#3 123965879#4-AddedOnRampEdge 123965879#4 123965879#4-AddedOffRampEdge 123961229#0 123961229#1-AddedOnRampEdge 123961229#1 123961229#1-AddedOffRampEdge 321265666#1 321265666#2-AddedOnRampEdge 321265666#2 321265666#2-AddedOffRampEdge 321279636#1 321279636#2-AddedOnRampEdge 321279636#2 321279636#2-AddedOffRampEdge 321279636#3 321279636#4-AddedOnRampEdge 321279636#4 321279636#4-AddedOffRampEdge 128497230#0 128497230#1-AddedOnRampEdge 128497230#1"/>
    <route id="123959660_to_327268097#1" edges="123959660 65596457 123967236#1-AddedOnRampEdge 123967236#1 123967236#1-AddedOffRampEdge 123965879#0 123965879#1-AddedOnRampEdge 123965879#1 123965879#1-AddedOffRampEdge 123965879#3 123965879#4-AddedOnRampEdge 123965879#4 123965879#4-AddedOffRampEdge 123961229#0 123961229#1-AddedOnRampEdge 123961229#1 123961229#1-AddedOffRampEdge 321265666#1 321265666#2-AddedOnRampEdge 321265666#2 321265666#2-AddedOffRampEdge 321279636#1 321279636#2-AddedOnRampEdge 321279636#2 321279636#2-AddedOffRampEdge 321279636#3 321279636#4-AddedOnRampEdge 321279636#4 321279636#4-AddedOffRampEdge 321279636#5 327268097#1-AddedOnRampEdge 327268097#1"/>

    <route id="123967087_to_58670761" edges="123967087 58738831 123961236#9-AddedOnRampEdge 123961236#9 123961236#9-AddedOffRampEdge 123960179 58670761"/>
    <route id="123967087_to_24644789" edges="123967087 58738831 123961236#9-AddedOnRampEdge 123961236#9 123961236#9-AddedOffRampEdge 123961236#12 123961236#13-AddedOnRampEdge 123961236#13 123961236#13-AddedOffRampEdge 24644789"/>
    <route id="123967087_to_38245579#1" edges="123967087 58738831 123961236#9-AddedOnRampEdge 123961236#9 123961236#9-AddedOffRampEdge 123961236#12 123961236#13-AddedOnRampEdge 123961236#13 123961236#13-AddedOffRampEdge 4258460 38245579#0 38245579#1-AddedOnRampEdge 38245579#1"/>

    <route id="128497436_to_-128052719" edges="128497436 58738827 123965879#1-AddedOnRampEdge 123965879#1 123965879#1-AddedOffRampEdge 29334379 -128052719"/>
    <route id="128497436_to_22907450" edges="128497436 58738827 123965879#1-AddedOnRampEdge 123965879#1 123965879#1-AddedOffRampEdge 123965879#3 123965879#4-AddedOnRampEdge 123965879#4 123965879#4-AddedOffRampEdge 22907452 496427590 -123961786 22907450"/>
    <route id="128497436_to_86382126" edges="128497436 58738827 123965879#1-AddedOnRampEdge 123965879#1 123965879#1-AddedOffRampEdge 123965879#3 123965879#4-AddedOnRampEdge 123965879#4 123965879#4-AddedOffRampEdge 123961229#0 123961229#1-AddedOnRampEdge 123961229#1 123961229#1-AddedOffRampEdge 321265666#1 321265666#2-AddedOnRampEdge 321265666#2 321265666#2-AddedOffRampEdge 275503314 86382126"/>
    <route id="128497436_to_22661031#0" edges="128497436 58738827 123965879#1-AddedOnRampEdge 123965879#1 123965879#1-AddedOffRampEdge 123965879#3 123965879#4-AddedOnRampEdge 123965879#4 123965879#4-AddedOffRampEdge 123961229#0 123961229#1-AddedOnRampEdge 123961229#1 123961229#1-AddedOffRampEdge 22661030 22661031#0"/>
    <route id="128497436_to_86382092" edges="128497436 58738827 123965879#1-AddedOnRampEdge 123965879#1 123965879#1-AddedOffRampEdge 123965879#3 123965879#4-AddedOnRampEdge 123965879#4 123965879#4-AddedOffRampEdge 123961229#0 123961229#1-AddedOnRampEdge 123961229#1 123961229#1-AddedOffRampEdge 321265666#1 321265666#2-AddedOnRampEdge 321265666#2 321265666#2-AddedOffRampEdge 321279636#1 321279636#2-AddedOnRampEdge 321279636#2 321279636#2-AddedOffRampEdge 86382110 86382092"/>
    <route id="128497436_to_128497230#1" edges="128497436 58738827 123965879#1-AddedOnRampEdge 123965879#1 123965879#1-AddedOffRampEdge 123965879#3 123965879#4-AddedOnRampEdge 123965879#4 123965879#4-AddedOffRampEdge 123961229#0 123961229#1-AddedOnRampEdge 123961229#1 123961229#1-AddedOffRampEdge 321265666#1 321265666#2-AddedOnRampEdge 321265666#2 321265666#2-AddedOffRampEdge 321279636#1 321279636#2-AddedOnRampEdge 321279636#2 321279636#2-AddedOffRampEdge 321279636#3 321279636#4-AddedOnRampEdge 321279636#4 321279636#4-AddedOffRampEdge 128497230#0 128497230#1-AddedOnRampEdge 128497230#1"/>
    <route id="128497436_to_327268097#1" edges="128497436 58738827 123965879#1-AddedOnRampEdge 123965879#1 123965879#1-AddedOffRampEdge 123965879#3 123965879#4-AddedOnRampEdge 123965879#4 123965879#4-AddedOffRampEdge 123961229#0 123961229#1-AddedOnRampEdge 123961229#1 123961229#1-AddedOffRampEdge 321265666#1 321265666#2-AddedOnRampEdge 321265666#2 321265666#2-AddedOffRampEdge 321279636#1 321279636#2-AddedOnRampEdge 321279636#2 321279636#2-AddedOffRampEdge 321279636#3 321279636#4-AddedOnRampEdge 321279636#4 321279636#4-AddedOffRampEdge 321279636#5 327268097#1-AddedOnRampEdge 327268097#1"/>

    <route id="-128497195_to_58738832" edges="-128497195 27352485 123961236#7-AddedOnRampEdge 123961236#7 123961236#7-AddedOffRampEdge 128497341#0 58738832"/>
    <route id="-128497195_to_58670761" edges="-128497195 27352485 123961236#7-AddedOnRampEdge 123961236#7 123961236#7-AddedOffRampEdge 123961236#8 123961236#9-AddedOnRampEdge 123961236#9 123961236#9-AddedOffRampEdge 123960179 58670761"/>
    <route id="-128497195_to_24644789" edges="-128497195 27352485 123961236#7-AddedOnRampEdge 123961236#7 123961236#7-AddedOffRampEdge 123961236#8 123961236#9-AddedOnRampEdge 123961236#9 123961236#9-AddedOffRampEdge 123961236#12 123961236#13-AddedOnRampEdge 123961236#13 123961236#13-AddedOffRampEdge 24644789"/>
    <route id="-128497195_to_38245579#1" edges="-128497195 27352485 123961236#7-AddedOnRampEdge 123961236#7 123961236#7-AddedOffRampEdge 123961236#8 123961236#9-AddedOnRampEdge 123961236#9 123961236#9-AddedOffRampEdge 123961236#12 123961236#13-AddedOnRampEdge 123961236#13 123961236#13-AddedOffRampEdge 4258460 38245579#0 38245579#1-AddedOnRampEdge 38245579#1"/>

    <route id="128052719_to_22907450" edges="128052719 29334378 123965879#4-AddedOnRampEdge 123965879#4 123965879#4-AddedOffRampEdge 22907452 496427590 -123961786 22907450"/>
    <route id="128052719_to_86382126" edges="128052719 29334378 123965879#4-AddedOnRampEdge 123965879#4 123965879#4-AddedOffRampEdge 123961229#0 123961229#1-AddedOnRampEdge 123961229#1 123961229#1-AddedOffRampEdge 321265666#1 321265666#2-AddedOnRampEdge 321265666#2 321265666#2-AddedOffRampEdge 275503314 86382126"/>
    <route id="128052719_to_22661031#0" edges="128052719 29334378 123965879#4-AddedOnRampEdge 123965879#4 123965879#4-AddedOffRampEdge 123961229#0 123961229#1-AddedOnRampEdge 123961229#1 123961229#1-AddedOffRampEdge 22661030 22661031#0"/>
    <route id="128052719_to_86382092" edges="128052719 29334378 123965879#4-AddedOnRampEdge 123965879#4 123965879#4-AddedOffRampEdge 123961229#0 123961229#1-AddedOnRampEdge 123961229#1 123961229#1-AddedOffRampEdge 321265666#1 321265666#2-AddedOnRampEdge 321265666#2 321265666#2-AddedOffRampEdge 321279636#1 321279636#2-AddedOnRampEdge 321279636#2 321279636#2-AddedOffRampEdge 86382110 86382092"/>
    <route id="128052719_to_128497230#1" edges="128052719 29334378 123965879#4-AddedOnRampEdge 123965879#4 123965879#4-AddedOffRampEdge 123961229#0 123961229#1-AddedOnRampEdge 123961229#1 123961229#1-AddedOffRampEdge 321265666#1 321265666#2-AddedOnRampEdge 321265666#2 321265666#2-AddedOffRampEdge 321279636#1 321279636#2-AddedOnRampEdge 321279636#2 321279636#2-AddedOffRampEdge 321279636#3 321279636#4-AddedOnRampEdge 321279636#4 321279636#4-AddedOffRampEdge 128497230#0 128497230#1-AddedOnRampEdge 128497230#1"/>
    <route id="128052719_to_327268097#1" edges="128052719 29334378 123965879#4-AddedOnRampEdge 123965879#4 123965879#4-AddedOffRampEdge 123961229#0 123961229#1-AddedOnRampEdge 123961229#1 123961229#1-AddedOffRampEdge 321265666#1 321265666#2-AddedOnRampEdge 321265666#2 321265666#2-AddedOffRampEdge 321279636#1 321279636#2-AddedOnRampEdge 321279636#2 321279636#2-AddedOffRampEdge 321279636#3 321279636#4-AddedOnRampEdge 321279636#4 321279636#4-AddedOffRampEdge 321279636#5 327268097#1-AddedOnRampEdge 327268097#1"/>

    <route id="123961980_to_128497195" edges="123961980 25508818 123961236#1-AddedOnRampEdge 123961236#1 123961236#1-AddedOffRampEdge 4258491 128497195"/>
    <route id="123961980_to_58738832" edges="123961980 25508818 123961236#1-AddedOnRampEdge 123961236#1 123961236#1-AddedOffRampEdge 123961236#6 123961236#7-AddedOnRampEdge 123961236#7 123961236#7-AddedOffRampEdge 128497341#0 58738832"/>
    <route id="123961980_to_58670761" edges="123961980 25508818 123961236#1-AddedOnRampEdge 123961236#1 123961236#1-AddedOffRampEdge 123961236#6 123961236#7-AddedOnRampEdge 123961236#7 123961236#7-AddedOffRampEdge 123961236#8 123961236#9-AddedOnRampEdge 123961236#9 123961236#9-AddedOffRampEdge 123960179 58670761"/>
    <route id="123961980_to_24644789" edges="123961980 25508818 123961236#1-AddedOnRampEdge 123961236#1 123961236#1-AddedOffRampEdge 123961236#6 123961236#7-AddedOnRampEdge 123961236#7 123961236#7-AddedOffRampEdge 123961236#8 123961236#9-AddedOnRampEdge 123961236#9 123961236#9-AddedOffRampEdge 123961236#12 123961236#13-AddedOnRampEdge 123961236#13 123961236#13-AddedOffRampEdge 24644789"/>
    <route id="123961980_to_38245579#1" edges="123961980 25508818 123961236#1-AddedOnRampEdge 123961236#1 123961236#1-AddedOffRampEdge 123961236#6 123961236#7-AddedOnRampEdge 123961236#7 123961236#7-AddedOffRampEdge 123961236#8 123961236#9-AddedOnRampEdge 123961236#9 123961236#9-AddedOffRampEdge 123961236#12 123961236#13-AddedOnRampEdge 123961236#13 123961236#13-AddedOffRampEdge 4258460 38245579#0 38245579#1-AddedOnRampEdge 38245579#1"/>

    <route id="-22907450_to_86382126" edges="-22907450 123961786 22907453 496427591 123961229#1-AddedOnRampEdge 123961229#1 123961229#1-AddedOffRampEdge 321265666#1 321265666#2-AddedOnRampEdge 321265666#2 321265666#2-AddedOffRampEdge 275503314 86382126"/>
    <route id="-22907450_to_22661031#0" edges="-22907450 123961786 22907453 496427591 123961229#1-AddedOnRampEdge 123961229#1 123961229#1-AddedOffRampEdge 22661030 22661031#0"/>
    <route id="-22907450_to_86382092" edges="-22907450 123961786 22907453 496427591 123961229#1-AddedOnRampEdge 123961229#1 123961229#1-AddedOffRampEdge 321265666#1 321265666#2-AddedOnRampEdge 321265666#2 321265666#2-AddedOffRampEdge 321279636#1 321279636#2-AddedOnRampEdge 321279636#2 321279636#2-AddedOffRampEdge 86382110 86382092"/>
    <route id="-22907450_to_128497230#1" edges="-22907450 123961786 22907453 496427591 123961229#1-AddedOnRampEdge 123961229#1 123961229#1-AddedOffRampEdge 321265666#1 321265666#2-AddedOnRampEdge 321265666#2 321265666#2-AddedOffRampEdge 321279636#1 321279636#2-AddedOnRampEdge 321279636#2 321279636#2-AddedOffRampEdge 321279636#3 321279636#4-AddedOnRampEdge 321279636#4 321279636#4-AddedOffRampEdge 128497230#0 128497230#1-AddedOnRampEdge 128497230#1"/>
    <route id="-22907450_to_327268097#1" edges="-22907450 123961786 22907453 496427591 123961229#1-AddedOnRampEdge 123961229#1 123961229#1-AddedOffRampEdge 321265666#1 321265666#2-AddedOnRampEdge 321265666#2 321265666#2-AddedOffRampEdge 321279636#1 321279636#2-AddedOnRampEdge 321279636#2 321279636#2-AddedOffRampEdge 321279636#3 321279636#4-AddedOnRampEdge 321279636#4 321279636#4-AddedOffRampEdge 321279636#5 327268097#1-AddedOnRampEdge 327268097#1"/>

    <route id="-22661031#2_to_86382126" edges="-22661031#2 22661029 321265666#2-AddedOnRampEdge 321265666#2 321265666#2-AddedOffRampEdge 275503314 86382126"/>
    <route id="-22661031#2_to_86382092" edges="-22661031#2 22661029 321265666#2-AddedOnRampEdge 321265666#2 321265666#2-AddedOffRampEdge 321279636#1 321279636#2-AddedOnRampEdge 321279636#2 321279636#2-AddedOffRampEdge 86382110 86382092"/>
    <route id="-22661031#2_to_128497230#1" edges="-22661031#2 22661029 321265666#2-AddedOnRampEdge 321265666#2 321265666#2-AddedOffRampEdge 321279636#1 321279636#2-AddedOnRampEdge 321279636#2 321279636#2-AddedOffRampEdge 321279636#3 321279636#4-AddedOnRampEdge 321279636#4 321279636#4-AddedOffRampEdge 128497230#0 128497230#1-AddedOnRampEdge 128497230#1"/>
    <route id="-22661031#2_to_327268097#1" edges="-22661031#2 22661029 321265666#2-AddedOnRampEdge 321265666#2 321265666#2-AddedOffRampEdge 321279636#1 321279636#2-AddedOnRampEdge 321279636#2 321279636#2-AddedOffRampEdge 321279636#3 321279636#4-AddedOnRampEdge 321279636#4 321279636#4-AddedOffRampEdge 321279636#5 327268097#1-AddedOnRampEdge 327268097#1"/>

    <route id="-86382126_to_86382092" edges="-86382126 450622727 321279636#2-AddedOnRampEdge 321279636#2 321279636#2-AddedOffRampEdge 86382110 86382092"/>
    <route id="-86382126_to_128497230#1" edges="-86382126 450622727 321279636#2-AddedOnRampEdge 321279636#2 321279636#2-AddedOffRampEdge 321279636#3 321279636#4-AddedOnRampEdge 321279636#4 321279636#4-AddedOffRampEdge 128497230#0 128497230#1-AddedOnRampEdge 128497230#1"/>