<?xml version="1.0" encoding="UTF-8"?>

<!-- generated on 11/05/19 11:03:46 by Eclipse SUMO Version 1.3.1
<configuration xmlns:xsi="http://www.w3.org/2001/XMLSchema-instance" xsi:noNamespaceSchemaLocation="http://sumo.dlr.de/xsd/sumoConfiguration.xsd">

    <input>
        <net-file value="M50network.net.xml"/>
        <additional-files value="vtypes.add.xml,M50_routes.rou.xml,M50_emitters.emi.xml,M50_detectors.poi.xml,outputs.add.xml"/>
    </input>

    <output>
        <tripinfo-output value="output/tripinfo.out.xml"/>
    </output>

    <time>
        <begin value="0"/>
        <end value="86400"/>
        <step-length value="0.5"/>
    </time>

    <processing>
        <collision.mingap-factor value="0"/>
        <emergencydecel.warning-threshold value="5"/>
    </processing>

    <report>
        <log value="output/log.xml"/>
    </report>

    <gui_only>
        <tracker-interval value="0.5"/>
    </gui_only>

</configuration>
-->

<meandata xmlns:xsi="http://www.w3.org/2001/XMLSchema-instance" xsi:noNamespaceSchemaLocation="http://sumo.dlr.de/xsd/meandata_file.xsd">
    <interval begin="0.00" end="1800.00" id="1">
        <edge id="106130759" sampledSeconds="6479.15" traveltime="29.09" overlapTraveltime="29.27" density="4.55" occupancy="0.57" waitingTime="0.00" speed="27.22" departed="449" arrived="0" entered="0" left="446" laneChangedFrom="193" laneChangedTo="193"/>
        <edge id="106130759-AddedOffRampEdge" sampledSeconds="2211.74" traveltime="4.89" overlapTraveltime="5.13" density="9.86" occupancy="0.96" waitingTime="1.50" speed="25.28" departed="0" arrived="0" entered="432" left="430" laneChangedFrom="39" laneChangedTo="39"/>
        <edge id="106130759.1186" sampledSeconds="7256.21" traveltime="16.27" overlapTraveltime="16.45" density="9.08" occupancy="1.14" waitingTime="0.00" speed="27.28" departed="0" arrived="0" entered="442" left="440" laneChangedFrom="67" laneChangedTo="67"/>
        <edge id="106130759.1630" sampledSeconds="3919.18" traveltime="8.73" overlapTraveltime="8.92" density="9.15" occupancy="1.13" waitingTime="0.00" speed="27.26" departed="0" arrived="0" entered="440" left="437" laneChangedFrom="45" laneChangedTo="45"/>
        <edge id="106130759.1868" sampledSeconds="3752.78" traveltime="8.44" overlapTraveltime="8.62" density="9.07" occupancy="1.12" waitingTime="0.00" speed="27.24" departed="0" arrived="0" entered="437" left="434" laneChangedFrom="30" laneChangedTo="30"/>
        <edge id="106130759.2098" sampledSeconds="5494.43" traveltime="12.47" overlapTraveltime="12.66" density="9.01" occupancy="1.12" waitingTime="0.00" speed="27.15" departed="0" arrived="0" entered="434" left="432" laneChangedFrom="66" laneChangedTo="66"/>
        <edge id="106130759.2437" sampledSeconds="2497.30" traveltime="5.59" overlapTraveltime="5.78" density="9.23" occupancy="1.13" waitingTime="0.00" speed="26.89" departed="0" arrived="0" entered="432" left="432" laneChangedFrom="110" laneChangedTo="110"/>
        <edge id="106130759.791" sampledSeconds="6507.18" traveltime="14.47" overlapTraveltime="14.66" density="9.17" occupancy="1.14" waitingTime="0.00" speed="27.25" departed="0" arrived="0" entered="446" left="442" laneChangedFrom="134" laneChangedTo="134"/>
        <edge id="11955830" sampledSeconds="3682.34" traveltime="16.64" overlapTraveltime="16.95" density="7.58" occupancy="1.24" waitingTime="0.00" speed="16.22" departed="0" arrived="0" entered="219" left="216" laneChangedFrom="36" laneChangedTo="36"/>
        <edge id="11955831" sampledSeconds="1626.11" traveltime="6.83" overlapTraveltime="7.14" density="8.11" occupancy="0.98" waitingTime="0.00" speed="16.31" departed="0" arrived="0" entered="230" left="227" laneChangedFrom="37" laneChangedTo="37"/>
        <edge id="11959492" sampledSeconds="4299.76" traveltime="37.39" overlapTraveltime="37.97" density="8.29" occupancy="4.08" waitingTime="0.00" speed="7.72" departed="0" arrived="0" entered="114" left="111" laneChangedFrom="0" laneChangedTo="0"/>
        <edge id="11994462" sampledSeconds="2038.21" traveltime="22.24" overlapTraveltime="22.83" density="6.46" occupancy="1.57" waitingTime="0.00" speed="7.90" departed="0" arrived="0" entered="90" left="89" laneChangedFrom="13" laneChangedTo="13"/>
        <edge id="11994462-AddedOnRampEdge" sampledSeconds="743.94" traveltime="7.63" overlapTraveltime="8.27" density="6.88" occupancy="1.59" waitingTime="0.00" speed="7.87" departed="0" arrived="0" entered="90" left="90" laneChangedFrom="54" laneChangedTo="54"/>
        <edge id="128189136" sampledSeconds="3677.46" traveltime="15.98" overlapTraveltime="16.29" density="8.02" occupancy="1.99" waitingTime="0.00" speed="15.95" departed="0" arrived="0" entered="227" left="224" laneChangedFrom="49" laneChangedTo="49"/>
        <edge id="146909950#0" sampledSeconds="634.57" traveltime="2.96" overlapTraveltime="3.19" density="5.52" occupancy="0.51" waitingTime="0.00" speed="21.60" departed="0" arrived="0" entered="199" left="199" laneChangedFrom="2" laneChangedTo="2"/>
        <edge id="146909950#1" sampledSeconds="608.94" traveltime="5.30" overlapTraveltime="5.59" density="3.06" occupancy="0.49" waitingTime="0.00" speed="20.71" departed="0" arrived="0" entered="109" left="109" laneChangedFrom="1" laneChangedTo="1"/>
        <edge id="155345296#0" sampledSeconds="419.07" traveltime="16.44" overlapTraveltime="16.76" density="0.91" occupancy="0.22" waitingTime="0.00" speed="15.63" departed="0" arrived="0" entered="25" left="25" laneChangedFrom="1" laneChangedTo="1"/>
        <edge id="155345296#1" sampledSeconds="273.36" traveltime="3.95" overlapTraveltime="4.27" density="2.45" occupancy="0.38" waitingTime="0.00" speed="15.68" departed="0" arrived="0" entered="64" left="64" laneChangedFrom="39" laneChangedTo="39"/>
        <edge id="16403444#0" sampledSeconds="1006.14" traveltime="16.03" overlapTraveltime="16.35" density="2.21" occupancy="0.54" waitingTime="0.00" speed="15.80" departed="0" arrived="0" entered="62" left="61" laneChangedFrom="18" laneChangedTo="18"/>
        <edge id="16403444#1" sampledSeconds="1272.53" traveltime="9.39" overlapTraveltime="9.70" density="4.71" occupancy="0.76" waitingTime="0.00" speed="15.97" departed="0" arrived="0" entered="132" left="131" laneChangedFrom="19" laneChangedTo="19"/>
        <edge id="16403446" sampledSeconds="1582.62" traveltime="6.82" overlapTraveltime="7.14" density="8.00" occupancy="1.94" waitingTime="0.00" speed="16.11" departed="0" arrived="0" entered="222" left="221" laneChangedFrom="4" laneChangedTo="4"/>
        <edge id="16808971" sampledSeconds="1554.38" traveltime="21.27" overlapTraveltime="21.59" density="2.53" occupancy="1.26" waitingTime="0.00" speed="16.08" departed="0" arrived="0" entered="72" left="72" laneChangedFrom="0" laneChangedTo="0"/>
        <edge id="17516648" sampledSeconds="581.28" traveltime="5.92" overlapTraveltime="6.53" density="3.59" occupancy="0.84" waitingTime="0.00" speed="14.52" departed="0" arrived="0" entered="89" left="89" laneChangedFrom="15" laneChangedTo="15"/>
        <edge id="17550539" sampledSeconds="859.53" traveltime="6.26" overlapTraveltime="6.56" density="4.80" occupancy="2.29" waitingTime="0.00" speed="15.92" departed="0" arrived="0" entered="131" left="131" laneChangedFrom="0" laneChangedTo="0"/>
        <edge id="18702678" sampledSeconds="163.46" traveltime="3.81" overlapTraveltime="4.19" density="1.54" occupancy="0.70" waitingTime="0.00" speed="15.29" departed="0" arrived="0" entered="39" left="39" laneChangedFrom="0" laneChangedTo="0"/>
        <edge id="18702680" sampledSeconds="193.46" traveltime="4.64" overlapTraveltime="4.96" density="1.50" occupancy="0.70" waitingTime="0.00" speed="15.42" departed="0" arrived="0" entered="39" left="39" laneChangedFrom="0" laneChangedTo="0"/>
        <edge id="18702682" sampledSeconds="229.12" traveltime="5.51" overlapTraveltime="5.87" density="1.76" occupancy="0.83" waitingTime="0.00" speed="13.14" departed="0" arrived="0" entered="39" left="39" laneChangedFrom="0" laneChangedTo="0"/>
        <edge id="208416643" sampledSeconds="16.00" traveltime="0.69" overlapTraveltime="1.00" density="0.79" occupancy="0.14" waitingTime="0.00" speed="16.32" departed="0" arrived="0" entered="16" left="16" laneChangedFrom="0" laneChangedTo="0"/>
        <edge id="22941414" sampledSeconds="2769.82" traveltime="15.43" overlapTraveltime="15.74" density="6.26" occupancy="1.53" waitingTime="0.00" speed="15.93" departed="0" arrived="0" entered="176" left="176" laneChangedFrom="41" laneChangedTo="41"/>
        <edge id="22941416#0" sampledSeconds="661.10" traveltime="7.46" overlapTraveltime="7.78" density="3.13" occupancy="1.50" waitingTime="0.00" speed="15.71" departed="0" arrived="0" entered="85" left="85" laneChangedFrom="0" laneChangedTo="0"/>
        <edge id="22941416#1" sampledSeconds="1998.78" traveltime="23.31" overlapTraveltime="23.62" density="3.07" occupancy="1.51" waitingTime="0.00" speed="15.55" departed="0" arrived="0" entered="85" left="84" laneChangedFrom="0" laneChangedTo="0"/>
        <edge id="261187938" sampledSeconds="408.94" traveltime="1.87" overlapTraveltime="2.11" density="5.68" occupancy="0.63" waitingTime="0.00" speed="21.33" departed="0" arrived="0" entered="194" left="194" laneChangedFrom="2" laneChangedTo="2"/>
        <edge id="261187938-AddedOffRampEdge" sampledSeconds="939.75" traveltime="4.58" overlapTraveltime="4.86" density="5.45" occupancy="0.64" waitingTime="0.00" speed="20.74" departed="0" arrived="0" entered="194" left="193" laneChangedFrom="5" laneChangedTo="5"/>
        <edge id="261583463" sampledSeconds="253.41" traveltime="12.36" overlapTraveltime="12.67" density="0.71" occupancy="0.35" waitingTime="0.00" speed="16.14" departed="0" arrived="0" entered="20" left="20" laneChangedFrom="0" laneChangedTo="0"/>
        <edge id="261583464" sampledSeconds="1020.82" traveltime="10.95" overlapTraveltime="11.26" density="3.22" occupancy="1.58" waitingTime="0.00" speed="16.08" departed="0" arrived="0" entered="92" left="90" laneChangedFrom="0" laneChangedTo="0"/>
        <edge id="26378010" sampledSeconds="527.50" traveltime="5.42" overlapTraveltime="5.73" density="3.41" occupancy="1.62" waitingTime="0.00" speed="15.88" departed="0" arrived="0" entered="92" left="92" laneChangedFrom="0" laneChangedTo="0"/>
        <edge id="26380527" sampledSeconds="1191.37" traveltime="9.81" overlapTraveltime="10.12" density="2.68" occupancy="0.65" waitingTime="0.00" speed="24.94" departed="0" arrived="0" entered="118" left="117" laneChangedFrom="4" laneChangedTo="4"/>
        <edge id="273755091#2" sampledSeconds="190.86" traveltime="0.68" overlapTraveltime="1.07" density="17.91" occupancy="1.93" waitingTime="31.00" speed="10.23" departed="0" arrived="0" entered="178" left="178" laneChangedFrom="1" laneChangedTo="1"/>
        <edge id="28001589" sampledSeconds="479.85" traveltime="3.90" overlapTraveltime="4.21" density="4.17" occupancy="0.98" waitingTime="0.00" speed="16.38" departed="0" arrived="0" entered="114" left="114" laneChangedFrom="0" laneChangedTo="0"/>
        <edge id="28458821" sampledSeconds="1957.84" traveltime="23.36" overlapTraveltime="23.68" density="2.99" occupancy="1.48" waitingTime="0.00" speed="15.56" departed="0" arrived="0" entered="83" left="82" laneChangedFrom="0" laneChangedTo="0"/>
        <edge id="28458824" sampledSeconds="2413.68" traveltime="27.03" overlapTraveltime="27.34" density="3.10" occupancy="1.55" waitingTime="0.00" speed="16.01" departed="0" arrived="0" entered="90" left="88" laneChangedFrom="0" laneChangedTo="0"/>
        <edge id="28458828" sampledSeconds="1641.35" traveltime="5.00" overlapTraveltime="5.31" density="11.36" occupancy="1.07" waitingTime="0.00" speed="16.06" departed="0" arrived="0" entered="309" left="309" laneChangedFrom="161" laneChangedTo="161"/>
        <edge id="28458895" sampledSeconds="1616.31" traveltime="5.01" overlapTraveltime="5.24" density="8.94" occupancy="1.06" waitingTime="0.00" speed="20.12" departed="0" arrived="0" entered="309" left="308" laneChangedFrom="24" laneChangedTo="24"/>
        <edge id="28531510" sampledSeconds="174.31" traveltime="2.91" overlapTraveltime="3.23" density="2.11" occupancy="0.48" waitingTime="0.00" speed="15.78" departed="0" arrived="0" entered="54" left="54" laneChangedFrom="20" laneChangedTo="20"/>
        <edge id="28531510.48" sampledSeconds="433.37" traveltime="7.71" overlapTraveltime="8.03" density="1.96" occupancy="0.95" waitingTime="0.00" speed="15.95" departed="0" arrived="0" entered="54" left="54" laneChangedFrom="0" laneChangedTo="0"/>
        <edge id="29038677" sampledSeconds="754.07" traveltime="16.01" overlapTraveltime="16.32" density="1.63" occupancy="0.80" waitingTime="0.00" speed="16.10" departed="0" arrived="0" entered="47" left="46" laneChangedFrom="0" laneChangedTo="0"/>
        <edge id="29332864" sampledSeconds="2096.87" traveltime="22.01" overlapTraveltime="22.31" density="3.23" occupancy="1.61" waitingTime="0.00" speed="16.41" departed="0" arrived="0" entered="94" left="94" laneChangedFrom="0" laneChangedTo="0"/>
        <edge id="293596618#1-AddedOffRampEdge" sampledSeconds="2244.53" traveltime="22.73" overlapTraveltime="22.96" density="2.56" occupancy="0.32" waitingTime="0.00" speed="21.40" departed="194" arrived="0" entered="0" left="194" laneChangedFrom="29" laneChangedTo="29"/>
        <edge id="30414032" sampledSeconds="4783.77" traveltime="18.95" overlapTraveltime="19.27" density="8.88" occupancy="4.37" waitingTime="0.00" speed="15.79" departed="0" arrived="0" entered="249" left="247" laneChangedFrom="0" laneChangedTo="0"/>
        <edge id="319144060" sampledSeconds="3110.15" traveltime="16.85" overlapTraveltime="17.16" density="6.39" occupancy="1.05" waitingTime="0.00" speed="16.06" departed="333" arrived="0" entered="0" left="333" laneChangedFrom="25" laneChangedTo="25"/>
        <edge id="328393125" sampledSeconds="3001.06" traveltime="11.29" overlapTraveltime="11.48" density="5.41" occupancy="0.67" waitingTime="0.00" speed="27.30" departed="0" arrived="0" entered="262" left="261" laneChangedFrom="67" laneChangedTo="67"/>
        <edge id="328393125-AddedOnRampEdge" sampledSeconds="1210.81" traveltime="4.42" overlapTraveltime="4.62" density="6.66" occupancy="0.64" waitingTime="0.00" speed="22.96" departed="0" arrived="0" entered="264" left="262" laneChangedFrom="37" laneChangedTo="37"/>
        <edge id="332655578" sampledSeconds="3708.54" traveltime="41.09" overlapTraveltime="41.67" density="6.31" occupancy="1.55" waitingTime="0.00" speed="7.96" departed="0" arrived="0" entered="89" left="89" laneChangedFrom="107" laneChangedTo="107"/>
        <edge id="332655581" sampledSeconds="856.16" traveltime="7.61" overlapTraveltime="7.84" density="4.05" occupancy="1.92" waitingTime="0.00" speed="15.63" departed="0" arrived="0" entered="111" left="109" laneChangedFrom="0" laneChangedTo="0"/>
        <edge id="345616204#1" sampledSeconds="4321.45" traveltime="12.06" overlapTraveltime="12.24" density="7.27" occupancy="0.90" waitingTime="0.00" speed="27.38" departed="0" arrived="0" entered="354" left="351" laneChangedFrom="71" laneChangedTo="71"/>
        <edge id="345616204#1-AddedOnRampEdge" sampledSeconds="1347.24" traveltime="3.62" overlapTraveltime="3.81" density="8.13" occupancy="0.78" waitingTime="0.00" speed="25.51" departed="0" arrived="0" entered="355" left="354" laneChangedFrom="138" laneChangedTo="138"/>
        <edge id="345616204#1.334" sampledSeconds="4171.11" traveltime="11.71" overlapTraveltime="11.89" density="7.20" occupancy="0.89" waitingTime="0.00" speed="27.48" departed="0" arrived="0" entered="351" left="350" laneChangedFrom="41" laneChangedTo="41"/>
        <edge id="345616204#1.655" sampledSeconds="4886.77" traveltime="13.82" overlapTraveltime="14.00" density="7.15" occupancy="0.89" waitingTime="0.00" speed="27.47" departed="0" arrived="350" entered="350" left="0" laneChangedFrom="3" laneChangedTo="3"/>
        <edge id="360361373" sampledSeconds="5008.70" traveltime="17.20" overlapTraveltime="17.38" density="6.06" occupancy="0.75" waitingTime="0.00" speed="26.70" departed="0" arrived="0" entered="290" left="287" laneChangedFrom="58" laneChangedTo="58"/>
        <edge id="360361373-AddedOffRampEdge" sampledSeconds="1019.74" traveltime="3.49" overlapTraveltime="3.68" density="6.08" occupancy="0.58" waitingTime="0.00" speed="26.69" departed="0" arrived="0" entered="277" left="277" laneChangedFrom="83" laneChangedTo="83"/>
        <edge id="360361373-AddedOnRampEdge" sampledSeconds="1144.17" traveltime="3.75" overlapTraveltime="3.95" density="6.91" occupancy="0.66" waitingTime="0.00" speed="24.60" departed="0" arrived="0" entered="290" left="290" laneChangedFrom="111" laneChangedTo="111"/>
        <edge id="360361373.1498" sampledSeconds="4279.79" traveltime="14.99" overlapTraveltime="15.18" density="5.93" occupancy="0.73" waitingTime="0.00" speed="26.76" departed="0" arrived="0" entered="282" left="282" laneChangedFrom="31" laneChangedTo="31"/>
        <edge id="360361373.1899" sampledSeconds="3357.48" traveltime="11.76" overlapTraveltime="11.95" density="5.92" occupancy="0.73" waitingTime="0.00" speed="26.79" departed="0" arrived="0" entered="282" left="280" laneChangedFrom="27" laneChangedTo="27"/>
        <edge id="360361373.2215" sampledSeconds="4485.19" traveltime="15.96" overlapTraveltime="16.14" density="5.83" occupancy="0.72" waitingTime="0.00" speed="26.80" departed="0" arrived="0" entered="280" left="277" laneChangedFrom="31" laneChangedTo="31"/>
        <edge id="360361373.2643" sampledSeconds="4302.48" traveltime="15.35" overlapTraveltime="15.54" density="5.81" occupancy="0.72" waitingTime="0.00" speed="26.78" departed="0" arrived="0" entered="277" left="277" laneChangedFrom="39" laneChangedTo="39"/>
        <edge id="360361373.463" sampledSeconds="5613.16" traveltime="19.39" overlapTraveltime="19.58" density="6.01" occupancy="0.75" waitingTime="0.00" speed="26.75" departed="0" arrived="0" entered="287" left="286" laneChangedFrom="44" laneChangedTo="44"/>
        <edge id="360361373.981" sampledSeconds="5524.81" traveltime="19.28" overlapTraveltime="19.47" density="5.95" occupancy="0.74" waitingTime="0.00" speed="26.75" departed="0" arrived="0" entered="286" left="282" laneChangedFrom="47" laneChangedTo="47"/>
        <edge id="4074534" sampledSeconds="321.82" traveltime="4.87" overlapTraveltime="5.19" density="2.32" occupancy="0.54" waitingTime="0.00" speed="15.81" departed="0" arrived="0" entered="62" left="62" laneChangedFrom="10" laneChangedTo="10"/>
        <edge id="41517592" sampledSeconds="906.05" traveltime="9.99" overlapTraveltime="10.18" density="2.84" occupancy="0.68" waitingTime="0.00" speed="17.88" departed="0" arrived="0" entered="89" left="89" laneChangedFrom="82" laneChangedTo="82"/>
        <edge id="428960734" sampledSeconds="6774.67" traveltime="21.97" overlapTraveltime="22.20" density="7.92" occupancy="0.98" waitingTime="0.00" speed="21.64" departed="0" arrived="302" entered="308" left="0" laneChangedFrom="41" laneChangedTo="41"/>
        <edge id="428960735" sampledSeconds="928.30" traveltime="2.78" overlapTraveltime="3.01" density="8.57" occupancy="0.99" waitingTime="0.00" speed="21.62" departed="0" arrived="0" entered="308" left="308" laneChangedFrom="11" laneChangedTo="11"/>
        <edge id="429432523" sampledSeconds="2214.30" traveltime="6.86" overlapTraveltime="7.17" density="11.10" occupancy="1.33" waitingTime="0.00" speed="16.16" departed="0" arrived="0" entered="309" left="309" laneChangedFrom="35" laneChangedTo="35"/>
        <edge id="429432524" sampledSeconds="1728.89" traveltime="7.55" overlapTraveltime="7.86" density="5.05" occupancy="0.82" waitingTime="0.00" speed="24.84" departed="0" arrived="0" entered="220" left="219" laneChangedFrom="39" laneChangedTo="39"/>
        <edge id="429432526" sampledSeconds="4786.40" traveltime="28.28" overlapTraveltime="28.59" density="5.78" occupancy="1.44" waitingTime="0.00" speed="16.28" departed="0" arrived="0" entered="169" left="166" laneChangedFrom="30" laneChangedTo="30"/>
        <edge id="429432925" sampledSeconds="146.26" traveltime="0.16" overlapTraveltime="0.48" density="30.78" occupancy="1.33" waitingTime="0.00" speed="16.12" departed="0" arrived="0" entered="309" left="309" laneChangedFrom="2" laneChangedTo="2"/>
        <edge id="431199180" sampledSeconds="587.92" traveltime="3.10" overlapTraveltime="3.34" density="5.35" occupancy="0.62" waitingTime="0.00" speed="19.77" departed="0" arrived="0" entered="176" left="176" laneChangedFrom="5" laneChangedTo="5"/>
        <edge id="4402237" sampledSeconds="292.78" traveltime="4.36" overlapTraveltime="4.67" density="2.37" occupancy="0.37" waitingTime="0.00" speed="15.76" departed="0" arrived="0" entered="64" left="62" laneChangedFrom="7" laneChangedTo="7"/>
        <edge id="4402297" sampledSeconds="2755.39" traveltime="13.12" overlapTraveltime="13.30" density="4.27" occupancy="0.71" waitingTime="0.00" speed="27.34" departed="0" arrived="0" entered="208" left="206" laneChangedFrom="28" laneChangedTo="28"/>
        <edge id="4404096" sampledSeconds="964.57" traveltime="13.48" overlapTraveltime="13.78" density="2.45" occupancy="0.40" waitingTime="0.00" speed="16.26" departed="0" arrived="0" entered="70" left="70" laneChangedFrom="38" laneChangedTo="38"/>
        <edge id="4414080#0" sampledSeconds="2683.61" traveltime="9.47" overlapTraveltime="9.69" density="5.97" occupancy="0.59" waitingTime="0.00" speed="26.28" departed="0" arrived="0" entered="277" left="277" laneChangedFrom="27" laneChangedTo="27"/>
        <edge id="4414080#0.187" sampledSeconds="2505.04" traveltime="17.39" overlapTraveltime="17.57" density="2.96" occupancy="0.49" waitingTime="0.00" speed="27.00" departed="0" arrived="0" entered="143" left="142" laneChangedFrom="40" laneChangedTo="40"/>
        <edge id="4414080#0.756" sampledSeconds="544.72" traveltime="1.98" overlapTraveltime="2.17" density="6.32" occupancy="0.72" waitingTime="0.00" speed="24.32" departed="0" arrived="0" entered="251" left="250" laneChangedFrom="121" laneChangedTo="121"/>
        <edge id="4414080#0.756.47" sampledSeconds="552.55" traveltime="2.03" overlapTraveltime="2.22" density="5.79" occupancy="0.88" waitingTime="0.00" speed="26.19" departed="0" arrived="0" entered="250" left="249" laneChangedFrom="15" laneChangedTo="15"/>
        <edge id="4414080#1-AddedOnRampEdge" sampledSeconds="4313.16" traveltime="12.89" overlapTraveltime="13.08" density="6.98" occupancy="0.86" waitingTime="0.00" speed="26.62" departed="0" arrived="0" entered="330" left="329" laneChangedFrom="141" laneChangedTo="141"/>
        <edge id="4414080#1-AddedOnRampEdge.343" sampledSeconds="4090.08" traveltime="12.28" overlapTraveltime="12.47" density="6.85" occupancy="0.85" waitingTime="0.00" speed="27.01" departed="0" arrived="0" entered="329" left="326" laneChangedFrom="90" laneChangedTo="90"/>
        <edge id="4414080#1-AddedOnRampEdge.675" sampledSeconds="2893.39" traveltime="8.70" overlapTraveltime="8.88" density="6.83" occupancy="0.84" waitingTime="0.00" speed="27.07" departed="0" arrived="0" entered="326" left="325" laneChangedFrom="45" laneChangedTo="45"/>
        <edge id="457424511#3" sampledSeconds="3605.28" traveltime="25.31" overlapTraveltime="25.62" density="4.83" occupancy="0.80" waitingTime="0.00" speed="16.38" departed="274" arrived="0" entered="0" left="274" laneChangedFrom="102" laneChangedTo="102"/>
        <edge id="457424511#3.414" sampledSeconds="6235.96" traveltime="22.54" overlapTraveltime="22.89" density="9.45" occupancy="1.57" waitingTime="0.00" speed="16.23" departed="0" arrived="0" entered="274" left="270" laneChangedFrom="138" laneChangedTo="138"/>
        <edge id="48290550" sampledSeconds="11565.91" traveltime="27.24" overlapTraveltime="27.42" density="8.67" occupancy="1.08" waitingTime="0.00" speed="27.22" departed="0" arrived="0" entered="423" left="421" laneChangedFrom="172" laneChangedTo="172"/>
        <edge id="48290550-AddedOffRampEdge" sampledSeconds="1821.47" traveltime="4.32" overlapTraveltime="4.57" density="9.20" occupancy="0.73" waitingTime="0.00" speed="25.19" departed="0" arrived="0" entered="400" left="398" laneChangedFrom="113" laneChangedTo="113"/>
        <edge id="48290550.1176" sampledSeconds="4740.26" traveltime="11.14" overlapTraveltime="11.32" density="8.65" occupancy="1.07" waitingTime="0.00" speed="27.33" departed="0" arrived="0" entered="419" left="418" laneChangedFrom="50" laneChangedTo="50"/>
        <edge id="48290550.1480" sampledSeconds="6135.63" traveltime="14.58" overlapTraveltime="14.76" density="8.56" occupancy="1.06" waitingTime="0.00" speed="27.33" departed="0" arrived="0" entered="418" left="414" laneChangedFrom="60" laneChangedTo="60"/>
        <edge id="48290550.1878" sampledSeconds="7842.43" traveltime="18.80" overlapTraveltime="18.99" density="8.48" occupancy="1.05" waitingTime="0.00" speed="27.33" departed="0" arrived="0" entered="414" left="413" laneChangedFrom="67" laneChangedTo="67"/>
        <edge id="48290550.2391" sampledSeconds="7766.51" traveltime="18.75" overlapTraveltime="18.94" density="8.42" occupancy="1.05" waitingTime="0.00" speed="27.33" departed="0" arrived="0" entered="413" left="405" laneChangedFrom="62" laneChangedTo="62"/>
        <edge id="48290550.2904" sampledSeconds="5184.10" traveltime="12.69" overlapTraveltime="12.87" density="8.35" occupancy="1.03" waitingTime="0.00" speed="27.17" departed="0" arrived="0" entered="405" left="401" laneChangedFrom="138" laneChangedTo="138"/>
        <edge id="48290550.3266" sampledSeconds="1399.50" traveltime="3.30" overlapTraveltime="3.49" density="8.74" occupancy="0.83" waitingTime="0.00" speed="26.92" departed="0" arrived="0" entered="401" left="401" laneChangedFrom="72" laneChangedTo="72"/>
        <edge id="48290550.745" sampledSeconds="6708.31" traveltime="15.79" overlapTraveltime="15.97" density="8.65" occupancy="1.07" waitingTime="0.00" speed="27.31" departed="0" arrived="0" entered="421" left="419" laneChangedFrom="73" laneChangedTo="73"/>
        <edge id="48290551#0" sampledSeconds="1650.08" traveltime="19.80" overlapTraveltime="20.13" density="2.94" occupancy="0.72" waitingTime="0.00" speed="15.72" departed="0" arrived="0" entered="82" left="81" laneChangedFrom="75" laneChangedTo="75"/>
        <edge id="48290551#1" sampledSeconds="1859.62" traveltime="7.85" overlapTraveltime="8.17" density="8.34" occupancy="1.35" waitingTime="0.00" speed="15.79" departed="0" arrived="0" entered="228" left="227" laneChangedFrom="76" laneChangedTo="76"/>
        <edge id="48290552" sampledSeconds="1117.49" traveltime="9.10" overlapTraveltime="9.73" density="4.62" occupancy="2.20" waitingTime="0.00" speed="14.32" departed="0" arrived="0" entered="115" left="114" laneChangedFrom="0" laneChangedTo="0"/>
        <edge id="48516115" sampledSeconds="2169.02" traveltime="10.66" overlapTraveltime="10.89" density="5.22" occupancy="0.51" waitingTime="0.00" speed="21.66" departed="0" arrived="0" entered="200" left="199" laneChangedFrom="16" laneChangedTo="16"/>
        <edge id="48516117" sampledSeconds="1856.33" traveltime="17.92" overlapTraveltime="18.15" density="2.65" occupancy="0.33" waitingTime="0.00" speed="21.73" departed="201" arrived="0" entered="0" left="201" laneChangedFrom="32" laneChangedTo="32"/>
        <edge id="48516117.389" sampledSeconds="4934.62" traveltime="24.40" overlapTraveltime="24.63" density="5.19" occupancy="0.64" waitingTime="0.00" speed="21.66" departed="0" arrived="0" entered="201" left="200" laneChangedFrom="171" laneChangedTo="171"/>
        <edge id="489961226" sampledSeconds="590.46" traveltime="4.73" overlapTraveltime="5.05" density="4.36" occupancy="1.02" waitingTime="0.00" speed="15.90" departed="0" arrived="0" entered="117" left="117" laneChangedFrom="2" laneChangedTo="2"/>
        <edge id="491989399#0" sampledSeconds="1047.97" traveltime="4.46" overlapTraveltime="4.70" density="6.47" occupancy="1.03" waitingTime="0.00" speed="20.24" departed="0" arrived="0" entered="224" left="223" laneChangedFrom="25" laneChangedTo="25"/>
        <edge id="491989399#1-AddedOnRampEdge" sampledSeconds="7887.13" traveltime="24.80" overlapTraveltime="25.03" density="8.28" occupancy="1.03" waitingTime="0.00" speed="21.33" departed="0" arrived="0" entered="316" left="315" laneChangedFrom="213" laneChangedTo="213"/>
        <edge id="491989399#1-AddedOnRampEdge.533" sampledSeconds="5801.55" traveltime="18.31" overlapTraveltime="18.54" density="8.23" occupancy="1.02" waitingTime="0.00" speed="21.40" departed="0" arrived="0" entered="315" left="309" laneChangedFrom="45" laneChangedTo="45"/>
        <edge id="491989399#1-AddedOnRampEdge.925" sampledSeconds="5725.91" traveltime="18.41" overlapTraveltime="18.64" density="8.08" occupancy="1.01" waitingTime="0.00" speed="21.38" departed="0" arrived="307" entered="309" left="0" laneChangedFrom="32" laneChangedTo="32"/>
        <edge id="492226824" sampledSeconds="456.67" traveltime="4.67" overlapTraveltime="4.91" density="2.80" occupancy="1.32" waitingTime="0.00" speed="19.47" departed="0" arrived="0" entered="93" left="93" laneChangedFrom="0" laneChangedTo="0"/>
        <edge id="492226827" sampledSeconds="1751.30" traveltime="19.37" overlapTraveltime="19.68" density="3.06" occupancy="0.75" waitingTime="0.00" speed="16.39" departed="0" arrived="0" entered="89" left="89" laneChangedFrom="15" laneChangedTo="15"/>
        <edge id="492226831" sampledSeconds="2079.06" traveltime="15.23" overlapTraveltime="15.55" density="4.84" occupancy="1.19" waitingTime="0.00" speed="15.67" departed="0" arrived="0" entered="134" left="133" laneChangedFrom="20" laneChangedTo="20"/>
        <edge id="492229071" sampledSeconds="994.15" traveltime="7.45" overlapTraveltime="7.64" density="3.27" occupancy="1.58" waitingTime="0.00" speed="22.79" departed="0" arrived="0" entered="131" left="130" laneChangedFrom="0" laneChangedTo="0"/>