<?xml version="1.0" encoding="UTF-8"?>

<!-- generated on 12/11/19 15:29:46 by Eclipse SUMO Version 1.3.1
<configuration xmlns:xsi="http://www.w3.org/2001/XMLSchema-instance" xsi:noNamespaceSchemaLocation="http://sumo.dlr.de/xsd/sumoConfiguration.xsd">

    <input>
        <net-file value="N7_network.net.xml"/>
        <additional-files value="vtypes.add.xml,N7_routes.rou.xml,N7_emitters.emi.xml,N7_detectors.poi.xml,outputs.add.xml"/>
    </input>

    <time>
        <begin value="0"/>
        <end value="86400"/>
        <step-length value="0.5"/>
    </time>

    <processing>
        <collision.mingap-factor value="0"/>
        <emergencydecel.warning-threshold value="5"/>
    </processing>

    <report>
        <log value="output/log.xml"/>
    </report>

    <gui_only>
        <tracker-interval value="0.5"/>
    </gui_only>

</configuration>
-->

<meandata xmlns:xsi="http://www.w3.org/2001/XMLSchema-instance" xsi:noNamespaceSchemaLocation="http://sumo.dlr.de/xsd/meandata_file.xsd">
    <interval begin="0.00" end="1800.00" id="1">
        <edge id="-123961786" sampledSeconds="0.00" departed="0" arrived="0" entered="0" left="0" laneChangedFrom="0" laneChangedTo="0"/>
        <edge id="-123961980" sampledSeconds="19.89" traveltime="6.48" overlapTraveltime="6.77" density="0.10" occupancy="0.05" waitingTime="0.00" speed="16.99" departed="0" arrived="3" entered="3" left="0" laneChangedFrom="0" laneChangedTo="0"/>
        <edge id="-128052719" sampledSeconds="7.09" traveltime="6.87" overlapTraveltime="7.09" density="0.03" occupancy="0.01" waitingTime="0.00" speed="22.59" departed="0" arrived="1" entered="1" left="0" laneChangedFrom="0" laneChangedTo="0"/>
        <edge id="-128497195" sampledSeconds="0.00" departed="0" arrived="0" entered="0" left="0" laneChangedFrom="0" laneChangedTo="0"/>
        <edge id="-22661031#2" sampledSeconds="0.00" departed="0" arrived="0" entered="0" left="0" laneChangedFrom="0" laneChangedTo="0"/>
        <edge id="-22907450" sampledSeconds="0.00" departed="0" arrived="0" entered="0" left="0" laneChangedFrom="0" laneChangedTo="0"/>
        <edge id="-275503318#2" sampledSeconds="17.57" traveltime="5.63" overlapTraveltime="6.01" density="0.15" occupancy="0.07" waitingTime="0.00" speed="11.55" departed="0" arrived="3" entered="3" left="0" laneChangedFrom="0" laneChangedTo="0"/>
        <edge id="-8296126#3" sampledSeconds="11.44" traveltime="5.37" overlapTraveltime="5.73" density="0.09" occupancy="0.04" waitingTime="0.00" speed="13.91" departed="0" arrived="2" entered="2" left="0" laneChangedFrom="0" laneChangedTo="0"/>
        <edge id="-86382092" sampledSeconds="0.00" departed="0" arrived="0" entered="0" left="0" laneChangedFrom="0" laneChangedTo="0"/>
        <edge id="-86382126" sampledSeconds="0.00" departed="0" arrived="0" entered="0" left="0" laneChangedFrom="0" laneChangedTo="0"/>
        <edge id="123959660" sampledSeconds="0.00" departed="0" arrived="0" entered="0" left="0" laneChangedFrom="0" laneChangedTo="0"/>
        <edge id="123959844" sampledSeconds="0.00" departed="0" arrived="0" entered="0" left="0" laneChangedFrom="0" laneChangedTo="0"/>
        <edge id="123960179" sampledSeconds="59.40" traveltime="14.56" overlapTraveltime="14.85" density="0.08" occupancy="0.04" waitingTime="0.00" speed="27.13" departed="0" arrived="0" entered="4" left="4" laneChangedFrom="0" laneChangedTo="0"/>
        <edge id="123960426" sampledSeconds="0.00" departed="0" arrived="0" entered="0" left="0" laneChangedFrom="0" laneChangedTo="0"/>
        <edge id="123960478" sampledSeconds="0.00" departed="0" arrived="0" entered="0" left="0" laneChangedFrom="0" laneChangedTo="0"/>
        <edge id="123960508" sampledSeconds="0.00" departed="0" arrived="0" entered="0" left="0" laneChangedFrom="0" laneChangedTo="0"/>
        <edge id="123961229#0" sampledSeconds="438.66" traveltime="6.08" overlapTraveltime="6.27" density="1.45" occupancy="0.24" waitingTime="0.00" speed="27.53" departed="0" arrived="0" entered="70" left="70" laneChangedFrom="1" laneChangedTo="1"/>
        <edge id="123961229#1" sampledSeconds="3077.68" traveltime="45.35" overlapTraveltime="45.53" density="1.37" occupancy="0.23" waitingTime="0.00" speed="27.51" departed="0" arrived="0" entered="69" left="67" laneChangedFrom="14" laneChangedTo="14"/>
        <edge id="123961229#1-AddedOffRampEdge" sampledSeconds="236.08" traveltime="3.34" overlapTraveltime="3.52" density="1.42" occupancy="0.17" waitingTime="0.00" speed="27.55" departed="0" arrived="0" entered="67" left="67" laneChangedFrom="1" laneChangedTo="1"/>
        <edge id="123961229#1-AddedOnRampEdge" sampledSeconds="244.21" traveltime="3.35" overlapTraveltime="3.53" density="1.47" occupancy="0.17" waitingTime="0.00" speed="27.51" departed="0" arrived="0" entered="70" left="69" laneChangedFrom="2" laneChangedTo="2"/>
        <edge id="123961236#0" sampledSeconds="1486.84" traveltime="6.84" overlapTraveltime="7.03" density="4.46" occupancy="0.73" waitingTime="0.00" speed="27.10" departed="0" arrived="0" entered="213" left="211" laneChangedFrom="9" laneChangedTo="9"/>
        <edge id="123961236#1" sampledSeconds="15113.18" traveltime="72.78" overlapTraveltime="72.96" density="4.26" occupancy="0.71" waitingTime="0.00" speed="27.06" departed="0" arrived="0" entered="211" left="200" laneChangedFrom="163" laneChangedTo="163"/>
        <edge id="123961236#1-AddedOffRampEdge" sampledSeconds="717.12" traveltime="3.40" overlapTraveltime="3.59" density="4.33" occupancy="0.52" waitingTime="0.00" speed="27.07" departed="0" arrived="0" entered="200" left="200" laneChangedFrom="6" laneChangedTo="6"/>
        <edge id="123961236#1-AddedOnRampEdge" sampledSeconds="756.17" traveltime="3.40" overlapTraveltime="3.58" density="4.56" occupancy="0.54" waitingTime="0.00" speed="27.09" departed="0" arrived="0" entered="211" left="211" laneChangedFrom="5" laneChangedTo="5"/>
        <edge id="123961236#12" sampledSeconds="6542.30" traveltime="38.23" overlapTraveltime="38.42" density="3.50" occupancy="0.58" waitingTime="0.00" speed="27.19" departed="0" arrived="0" entered="173" left="167" laneChangedFrom="60" laneChangedTo="60"/>
        <edge id="123961236#13" sampledSeconds="1917.19" traveltime="11.36" overlapTraveltime="11.55" density="3.45" occupancy="0.57" waitingTime="0.00" speed="27.19" departed="0" arrived="0" entered="166" left="166" laneChangedFrom="72" laneChangedTo="72"/>
        <edge id="123961236#13-AddedOffRampEdge" sampledSeconds="593.16" traveltime="3.39" overlapTraveltime="3.57" density="3.58" occupancy="0.43" waitingTime="0.00" speed="27.16" departed="0" arrived="0" entered="166" left="166" laneChangedFrom="4" laneChangedTo="4"/>
        <edge id="123961236#13-AddedOnRampEdge" sampledSeconds="593.75" traveltime="3.38" overlapTraveltime="3.56" density="3.59" occupancy="0.43" waitingTime="0.00" speed="27.22" departed="0" arrived="0" entered="167" left="166" laneChangedFrom="11" laneChangedTo="11"/>
        <edge id="123961236#6" sampledSeconds="1524.68" traveltime="7.54" overlapTraveltime="7.73" density="4.14" occupancy="0.68" waitingTime="0.00" speed="27.10" departed="0" arrived="0" entered="198" left="197" laneChangedFrom="9" laneChangedTo="9"/>
        <edge id="123961236#7" sampledSeconds="3840.53" traveltime="19.35" overlapTraveltime="19.53" density="4.07" occupancy="0.67" waitingTime="0.00" speed="27.09" departed="0" arrived="0" entered="197" left="196" laneChangedFrom="30" laneChangedTo="30"/>
        <edge id="123961236#7-AddedOffRampEdge" sampledSeconds="698.39" traveltime="3.39" overlapTraveltime="3.57" density="4.22" occupancy="0.50" waitingTime="0.00" speed="27.12" departed="0" arrived="0" entered="196" left="195" laneChangedFrom="7" laneChangedTo="7"/>
        <edge id="123961236#7-AddedOnRampEdge" sampledSeconds="705.72" traveltime="3.40" overlapTraveltime="3.58" density="4.26" occupancy="0.51" waitingTime="0.00" speed="27.11" departed="0" arrived="0" entered="197" left="197" laneChangedFrom="2" laneChangedTo="2"/>
        <edge id="123961236#8" sampledSeconds="8139.01" traveltime="42.94" overlapTraveltime="43.13" density="3.88" occupancy="0.65" waitingTime="0.00" speed="27.15" departed="0" arrived="0" entered="192" left="186" laneChangedFrom="84" laneChangedTo="84"/>
        <edge id="123961236#9" sampledSeconds="10973.02" traveltime="60.22" overlapTraveltime="60.40" density="3.72" occupancy="0.62" waitingTime="0.00" speed="27.22" departed="0" arrived="0" entered="186" left="178" laneChangedFrom="108" laneChangedTo="108"/>
        <edge id="123961236#9-AddedOffRampEdge" sampledSeconds="699.05" traveltime="3.75" overlapTraveltime="3.94" density="3.79" occupancy="0.45" waitingTime="0.00" speed="27.27" departed="0" arrived="0" entered="178" left="177" laneChangedFrom="42" laneChangedTo="42"/>
        <edge id="123961236#9-AddedOnRampEdge" sampledSeconds="663.53" traveltime="3.38" overlapTraveltime="3.57" density="4.01" occupancy="0.48" waitingTime="0.00" speed="27.19" departed="0" arrived="0" entered="186" left="186" laneChangedFrom="8" laneChangedTo="8"/>
        <edge id="123961786" sampledSeconds="0.00" departed="0" arrived="0" entered="0" left="0" laneChangedFrom="0" laneChangedTo="0"/>
        <edge id="123961980" sampledSeconds="0.00" departed="0" arrived="0" entered="0" left="0" laneChangedFrom="0" laneChangedTo="0"/>
        <edge id="123962072" sampledSeconds="4893.79" traveltime="20.12" overlapTraveltime="20.31" density="4.96" occupancy="0.82" waitingTime="0.00" speed="27.25" departed="0" arrived="0" entered="243" left="240" laneChangedFrom="72" laneChangedTo="72"/>
        <edge id="123962130-AddedOffRampEdge" sampledSeconds="868.04" traveltime="3.37" overlapTraveltime="3.56" density="5.24" occupancy="0.62" waitingTime="0.00" speed="27.27" departed="0" arrived="0" entered="244" left="244" laneChangedFrom="21" laneChangedTo="21"/>
        <edge id="123962130.2472" sampledSeconds="3771.15" traveltime="30.05" overlapTraveltime="30.23" density="2.56" occupancy="0.42" waitingTime="0.00" speed="27.22" departed="245" arrived="0" entered="0" left="244" laneChangedFrom="136" laneChangedTo="136"/>
        <edge id="123965879#0" sampledSeconds="1962.05" traveltime="24.34" overlapTraveltime="24.53" density="1.63" occupancy="0.27" waitingTime="0.00" speed="27.44" departed="0" arrived="0" entered="80" left="80" laneChangedFrom="8" laneChangedTo="8"/>
        <edge id="123965879#1" sampledSeconds="4071.23" traveltime="53.55" overlapTraveltime="53.73" density="1.54" occupancy="0.26" waitingTime="0.00" speed="27.45" departed="0" arrived="0" entered="80" left="74" laneChangedFrom="12" laneChangedTo="12"/>
        <edge id="123965879#1-AddedOffRampEdge" sampledSeconds="261.30" traveltime="3.35" overlapTraveltime="3.53" density="1.58" occupancy="0.19" waitingTime="0.00" speed="27.49" departed="0" arrived="0" entered="74" left="74" laneChangedFrom="0" laneChangedTo="0"/>
        <edge id="123965879#1-AddedOnRampEdge" sampledSeconds="282.07" traveltime="3.34" overlapTraveltime="3.53" density="1.71" occupancy="0.20" waitingTime="0.00" speed="27.45" departed="0" arrived="0" entered="80" left="80" laneChangedFrom="1" laneChangedTo="1"/>
        <edge id="123965879#3" sampledSeconds="440.99" traveltime="5.90" overlapTraveltime="6.08" density="1.51" occupancy="0.24" waitingTime="0.00" speed="27.52" departed="0" arrived="0" entered="73" left="72" laneChangedFrom="1" laneChangedTo="1"/>
        <edge id="123965879#4" sampledSeconds="4545.27" traveltime="63.28" overlapTraveltime="63.46" density="1.45" occupancy="0.24" waitingTime="0.00" speed="27.54" departed="0" arrived="0" entered="72" left="70" laneChangedFrom="20" laneChangedTo="20"/>
        <edge id="123965879#4-AddedOffRampEdge" sampledSeconds="247.12" traveltime="3.35" overlapTraveltime="3.53" density="1.49" occupancy="0.18" waitingTime="0.00" speed="27.52" departed="0" arrived="0" entered="70" left="70" laneChangedFrom="1" laneChangedTo="1"/>
        <edge id="123965879#4-AddedOnRampEdge" sampledSeconds="253.85" traveltime="3.34" overlapTraveltime="3.53" density="1.53" occupancy="0.18" waitingTime="0.00" speed="27.52" departed="0" arrived="0" entered="72" left="72" laneChangedFrom="2" laneChangedTo="2"/>
        <edge id="123966730" sampledSeconds="81.54" traveltime="13.28" overlapTraveltime="13.59" density="0.13" occupancy="0.06" waitingTime="0.00" speed="25.79" departed="0" arrived="0" entered="6" left="6" laneChangedFrom="0" laneChangedTo="0"/>
        <edge id="123967087" sampledSeconds="0.00" departed="0" arrived="0" entered="0" left="0" laneChangedFrom="0" laneChangedTo="0"/>
        <edge id="123967236#0" sampledSeconds="2972.38" traveltime="33.36" overlapTraveltime="33.54" density="1.80" occupancy="0.30" waitingTime="0.00" speed="27.43" departed="0" arrived="0" entered="89" left="88" laneChangedFrom="10" laneChangedTo="10"/>
        <edge id="123967236#1" sampledSeconds="5515.08" traveltime="63.80" overlapTraveltime="63.98" density="1.75" occupancy="0.29" waitingTime="0.00" speed="27.42" departed="0" arrived="0" entered="88" left="86" laneChangedFrom="13" laneChangedTo="13"/>
        <edge id="123967236#1-AddedOffRampEdge" sampledSeconds="304.24" traveltime="3.36" overlapTraveltime="3.54" density="1.84" occupancy="0.22" waitingTime="0.00" speed="27.42" departed="0" arrived="0" entered="86" left="86" laneChangedFrom="1" laneChangedTo="1"/>
        <edge id="123967236#1-AddedOnRampEdge" sampledSeconds="311.08" traveltime="3.35" overlapTraveltime="3.54" density="1.88" occupancy="0.22" waitingTime="0.00" speed="27.44" departed="0" arrived="0" entered="88" left="88" laneChangedFrom="3" laneChangedTo="3"/>
        <edge id="123969747" sampledSeconds="2583.54" traveltime="28.76" overlapTraveltime="28.94" density="1.82" occupancy="0.30" waitingTime="0.00" speed="27.43" departed="0" arrived="0" entered="90" left="89" laneChangedFrom="83" laneChangedTo="83"/>
        <edge id="123969747-AddedOffRampEdge" sampledSeconds="327.86" traveltime="3.50" overlapTraveltime="3.68" density="1.90" occupancy="0.30" waitingTime="0.00" speed="27.42" departed="0" arrived="0" entered="89" left="89" laneChangedFrom="2" laneChangedTo="2"/>
        <edge id="123969747-AddedOnRampEdge" sampledSeconds="298.98" traveltime="3.14" overlapTraveltime="3.32" density="1.93" occupancy="0.30" waitingTime="0.00" speed="27.43" departed="0" arrived="0" entered="90" left="90" laneChangedFrom="0" laneChangedTo="0"/>
        <edge id="128052719" sampledSeconds="0.00" departed="0" arrived="0" entered="0" left="0" laneChangedFrom="0" laneChangedTo="0"/>
        <edge id="128497195" sampledSeconds="9.76" traveltime="4.71" overlapTraveltime="4.96" density="0.07" occupancy="0.03" waitingTime="0.00" speed="17.56" departed="0" arrived="2" entered="2" left="0" laneChangedFrom="0" laneChangedTo="0"/>
        <edge id="128497230#0" sampledSeconds="0.00" departed="0" arrived="0" entered="0" left="0" laneChangedFrom="0" laneChangedTo="0"/>
        <edge id="128497230#1" sampledSeconds="0.00" departed="0" arrived="0" entered="0" left="0" laneChangedFrom="0" laneChangedTo="0"/>
        <edge id="128497230#1-AddedOnRampEdge" sampledSeconds="0.00" departed="0" arrived="0" entered="0" left="0" laneChangedFrom="0" laneChangedTo="0"/>
        <edge id="128497341#0" sampledSeconds="58.47" traveltime="19.12" overlapTraveltime="19.49" density="0.07" occupancy="0.04" waitingTime="0.00" speed="24.38" departed="0" arrived="0" entered="3" left="3" laneChangedFrom="0" laneChangedTo="0"/>
        <edge id="128497436" sampledSeconds="0.00" departed="0" arrived="0" entered="0" left="0" laneChangedFrom="0" laneChangedTo="0"/>
        <edge id="192556113" sampledSeconds="0.00" departed="0" arrived="0" entered="0" left="0" laneChangedFrom="0" laneChangedTo="0"/>
        <edge id="22661029" sampledSeconds="0.00" departed="0" arrived="0" entered="0" left="0" laneChangedFrom="0" laneChangedTo="0"/>
        <edge id="22661030" sampledSeconds="0.00" departed="0" arrived="0" entered="0" left="0" laneChangedFrom="0" laneChangedTo="0"/>
        <edge id="22661031#0" sampledSeconds="0.00" departed="0" arrived="0" entered="0" left="0" laneChangedFrom="0" laneChangedTo="0"/>
        <edge id="22780363" sampledSeconds="33.00" traveltime="16.29" overlapTraveltime="16.53" density="0.06" occupancy="0.03" waitingTime="0.00" speed="20.29" departed="0" arrived="2" entered="2" left="0" laneChangedFrom="0" laneChangedTo="0"/>
        <edge id="22907436" sampledSeconds="5.79" traveltime="1.65" overlapTraveltime="1.93" density="0.09" occupancy="0.04" waitingTime="0.00" speed="21.18" departed="0" arrived="0" entered="3" left="3" laneChangedFrom="0" laneChangedTo="0"/>
        <edge id="22907450" sampledSeconds="0.00" departed="0" arrived="0" entered="0" left="0" laneChangedFrom="0" laneChangedTo="0"/>
        <edge id="22907452" sampledSeconds="0.00" departed="0" arrived="0" entered="0" left="0" laneChangedFrom="0" laneChangedTo="0"/>
        <edge id="22907453" sampledSeconds="0.00" departed="0" arrived="0" entered="0" left="0" laneChangedFrom="0" laneChangedTo="0"/>
        <edge id="23565360#0" sampledSeconds="0.00" departed="0" arrived="0" entered="0" left="0" laneChangedFrom="0" laneChangedTo="0"/>
        <edge id="24644789" sampledSeconds="73.68" traveltime="18.23" overlapTraveltime="18.47" density="0.11" occupancy="0.03" waitingTime="0.00" speed="21.01" departed="0" arrived="4" entered="4" left="0" laneChangedFrom="0" laneChangedTo="0"/>
        <edge id="24644790" sampledSeconds="0.00" departed="0" arrived="0" entered="0" left="0" laneChangedFrom="0" laneChangedTo="0"/>
        <edge id="25508818" sampledSeconds="0.00" departed="0" arrived="0" entered="0" left="0" laneChangedFrom="0" laneChangedTo="0"/>
        <edge id="25750596" sampledSeconds="0.00" departed="0" arrived="0" entered="0" left="0" laneChangedFrom="0" laneChangedTo="0"/>
        <edge id="25750689" sampledSeconds="11.51" traveltime="5.42" overlapTraveltime="5.75" density="0.06" occupancy="0.03" waitingTime="0.00" speed="21.02" departed="0" arrived="0" entered="2" left="2" laneChangedFrom="0" laneChangedTo="0"/>
        <edge id="27352484#0" sampledSeconds="21.71" traveltime="6.88" overlapTraveltime="7.24" density="0.07" occupancy="0.03" waitingTime="0.00" speed="24.25" departed="0" arrived="0" entered="3" left="3" laneChangedFrom="0" laneChangedTo="0"/>
        <edge id="27352485" sampledSeconds="0.00" departed="0" arrived="0" entered="0" left="0" laneChangedFrom="0" laneChangedTo="0"/>
        <edge id="275503308#0" sampledSeconds="0.00" departed="0" arrived="0" entered="0" left="0" laneChangedFrom="0" laneChangedTo="0"/>
        <edge id="275503308#1" sampledSeconds="0.00" departed="0" arrived="0" entered="0" left="0" laneChangedFrom="0" laneChangedTo="0"/>
        <edge id="275503308#1-AddedOnRampEdge" sampledSeconds="0.00" departed="0" arrived="0" entered="0" left="0" laneChangedFrom="0" laneChangedTo="0"/>
        <edge id="275503314" sampledSeconds="0.00" departed="0" arrived="0" entered="0" left="0" laneChangedFrom="0" laneChangedTo="0"/>
        <edge id="275503318#0" sampledSeconds="0.00" departed="0" arrived="0" entered="0" left="0" laneChangedFrom="0" laneChangedTo="0"/>
        <edge id="29334378" sampledSeconds="0.00" departed="0" arrived="0" entered="0" left="0" laneChangedFrom="0" laneChangedTo="0"/>
        <edge id="29334379" sampledSeconds="3.66" traveltime="3.44" overlapTraveltime="3.66" density="0.03" occupancy="0.01" waitingTime="0.00" speed="22.45" departed="0" arrived="0" entered="1" left="1" laneChangedFrom="0" laneChangedTo="0"/>
        <edge id="29334729" sampledSeconds="0.00" departed="0" arrived="0" entered="0" left="0" laneChangedFrom="0" laneChangedTo="0"/>
        <edge id="32015714#0" sampledSeconds="3321.23" traveltime="66.53" overlapTraveltime="66.68" density="0.85" occupancy="0.21" waitingTime="0.00" speed="32.82" departed="94" arrived="0" entered="0" left="93" laneChangedFrom="52" laneChangedTo="52"/>
        <edge id="32015714#0-AddedOffRampEdge" sampledSeconds="274.68" traveltime="2.80" overlapTraveltime="2.95" density="1.66" occupancy="0.26" waitingTime="0.00" speed="32.84" departed="0" arrived="0" entered="93" left="93" laneChangedFrom="1" laneChangedTo="1"/>
        <edge id="32015714#1" sampledSeconds="1021.33" traveltime="11.04" overlapTraveltime="11.22" density="1.57" occupancy="0.39" waitingTime="0.00" speed="32.56" departed="0" arrived="0" entered="91" left="91" laneChangedFrom="8" laneChangedTo="8"/>
        <edge id="321265666#1" sampledSeconds="293.67" traveltime="4.20" overlapTraveltime="4.38" density="1.41" occupancy="0.23" waitingTime="0.00" speed="27.54" departed="0" arrived="0" entered="67" left="67" laneChangedFrom="1" laneChangedTo="1"/>
        <edge id="321265666#2" sampledSeconds="231.56" traveltime="3.27" overlapTraveltime="3.46" density="1.43" occupancy="0.23" waitingTime="0.00" speed="27.55" departed="0" arrived="0" entered="67" left="67" laneChangedFrom="0" laneChangedTo="0"/>
        <edge id="321265666#2-AddedOffRampEdge" sampledSeconds="236.07" traveltime="3.34" overlapTraveltime="3.52" density="1.43" occupancy="0.17" waitingTime="0.00" speed="27.52" departed="0" arrived="0" entered="67" left="67" laneChangedFrom="0" laneChangedTo="0"/>
        <edge id="321265666#2-AddedOnRampEdge" sampledSeconds="236.48" traveltime="3.35" overlapTraveltime="3.53" density="1.42" occupancy="0.17" waitingTime="0.00" speed="27.54" departed="0" arrived="0" entered="67" left="67" laneChangedFrom="1" laneChangedTo="1"/>
        <edge id="321279636#1" sampledSeconds="78.22" traveltime="0.99" overlapTraveltime="1.17" density="1.60" occupancy="0.23" waitingTime="0.00" speed="27.50" departed="0" arrived="0" entered="67" left="67" laneChangedFrom="1" laneChangedTo="1"/>
        <edge id="321279636#2" sampledSeconds="900.51" traveltime="13.26" overlapTraveltime="13.44" density="1.37" occupancy="0.23" waitingTime="0.00" speed="27.52" departed="0" arrived="0" entered="67" left="67" laneChangedFrom="4" laneChangedTo="4"/>
        <edge id="321279636#2-AddedOffRampEdge" sampledSeconds="235.02" traveltime="3.33" overlapTraveltime="3.51" density="1.43" occupancy="0.17" waitingTime="0.00" speed="27.54" departed="0" arrived="0" entered="67" left="67" laneChangedFrom="1" laneChangedTo="1"/>
        <edge id="321279636#2-AddedOnRampEdge" sampledSeconds="235.42" traveltime="3.33" overlapTraveltime="3.51" density="1.43" occupancy="0.17" waitingTime="0.00" speed="27.54" departed="0" arrived="0" entered="67" left="67" laneChangedFrom="0" laneChangedTo="0"/>
        <edge id="321279636#3" sampledSeconds="103.49" traveltime="1.36" overlapTraveltime="1.54" density="1.53" occupancy="0.23" waitingTime="0.00" speed="27.53" departed="0" arrived="0" entered="67" left="67" laneChangedFrom="1" laneChangedTo="1"/>
        <edge id="321279636#4" sampledSeconds="1473.64" traveltime="21.99" overlapTraveltime="22.17" density="1.35" occupancy="0.22" waitingTime="0.00" speed="27.53" departed="0" arrived="0" entered="67" left="66" laneChangedFrom="5" laneChangedTo="5"/>
        <edge id="321279636#4-AddedOffRampEdge" sampledSeconds="232.18" traveltime="3.34" overlapTraveltime="3.52" density="1.40" occupancy="0.17" waitingTime="0.00" speed="27.55" departed="0" arrived="0" entered="66" left="66" laneChangedFrom="2" laneChangedTo="2"/>
        <edge id="321279636#4-AddedOnRampEdge" sampledSeconds="235.76" traveltime="3.34" overlapTraveltime="3.52" density="1.43" occupancy="0.17" waitingTime="0.00" speed="27.52" departed="0" arrived="0" entered="67" left="67" laneChangedFrom="0" laneChangedTo="0"/>
        <edge id="321279636#5" sampledSeconds="3556.02" traveltime="54.86" overlapTraveltime="55.04" density="1.30" occupancy="0.22" waitingTime="0.00" speed="27.59" departed="0" arrived="0" entered="66" left="63" laneChangedFrom="16" laneChangedTo="16"/>
        <edge id="325686453#1" sampledSeconds="8199.57" traveltime="34.30" overlapTraveltime="34.48" density="4.88" occupancy="0.81" waitingTime="0.00" speed="27.20" departed="0" arrived="0" entered="239" left="237" laneChangedFrom="81" laneChangedTo="81"/>
        <edge id="325686453#1-AddedOffRampEdge" sampledSeconds="846.97" traveltime="3.39" overlapTraveltime="3.57" density="5.11" occupancy="0.61" waitingTime="0.00" speed="27.15" departed="0" arrived="0" entered="237" left="237" laneChangedFrom="7" laneChangedTo="7"/>
        <edge id="325686453#1-AddedOnRampEdge" sampledSeconds="862.63" traveltime="3.42" overlapTraveltime="3.61" density="5.14" occupancy="0.61" waitingTime="0.00" speed="27.24" departed="0" arrived="0" entered="240" left="239" laneChangedFrom="6" laneChangedTo="6"/>
        <edge id="325686453#4" sampledSeconds="1896.99" traveltime="7.92" overlapTraveltime="8.10" density="4.90" occupancy="0.80" waitingTime="0.00" speed="27.13" departed="0" arrived="0" entered="235" left="233" laneChangedFrom="23" laneChangedTo="23"/>
        <edge id="325686453#5" sampledSeconds="901.81" traveltime="3.70" overlapTraveltime="3.89" density="4.99" occupancy="0.79" waitingTime="0.00" speed="27.13" departed="0" arrived="0" entered="232" left="232" laneChangedFrom="13" laneChangedTo="13"/>
        <edge id="325686453#5-AddedOffRampEdge" sampledSeconds="827.42" traveltime="3.39" overlapTraveltime="3.57" density="5.00" occupancy="0.60" waitingTime="0.00" speed="27.12" departed="0" arrived="0" entered="232" left="231" laneChangedFrom="6" laneChangedTo="6"/>
        <edge id="325686453#5-AddedOnRampEdge" sampledSeconds="832.62" traveltime="3.39" overlapTraveltime="3.57" density="5.03" occupancy="0.60" waitingTime="0.00" speed="27.15" departed="0" arrived="0" entered="233" left="232" laneChangedFrom="9" laneChangedTo="9"/>
        <edge id="325686453#6" sampledSeconds="1752.25" traveltime="7.50" overlapTraveltime="7.69" density="4.78" occupancy="0.78" waitingTime="0.00" speed="27.13" departed="0" arrived="0" entered="228" left="228" laneChangedFrom="17" laneChangedTo="17"/>
        <edge id="325686453#6-AddedOffRampEdge" sampledSeconds="815.49" traveltime="3.39" overlapTraveltime="3.58" density="4.92" occupancy="0.59" waitingTime="0.00" speed="27.12" departed="0" arrived="0" entered="228" left="228" laneChangedFrom="8" laneChangedTo="8"/>
        <edge id="325686453#7" sampledSeconds="3963.07" traveltime="17.35" overlapTraveltime="17.53" density="4.68" occupancy="0.77" waitingTime="0.00" speed="27.13" departed="0" arrived="0" entered="228" left="225" laneChangedFrom="36" laneChangedTo="36"/>
        <edge id="325686453#8" sampledSeconds="15950.45" traveltime="72.16" overlapTraveltime="72.34" density="4.52" occupancy="0.75" waitingTime="0.00" speed="27.15" departed="0" arrived="0" entered="225" left="217" laneChangedFrom="150" laneChangedTo="150"/>
        <edge id="325686453#8-AddedOffRampEdge" sampledSeconds="774.68" traveltime="3.39" overlapTraveltime="3.58" density="4.68" occupancy="0.56" waitingTime="0.00" speed="27.12" departed="0" arrived="0" entered="217" left="216" laneChangedFrom="4" laneChangedTo="4"/>
        <edge id="325686453#8-AddedOnRampEdge" sampledSeconds="808.03" traveltime="3.41" overlapTraveltime="3.59" density="4.86" occupancy="0.58" waitingTime="0.00" speed="27.12" departed="0" arrived="0" entered="225" left="225" laneChangedFrom="8" laneChangedTo="8"/>
        <edge id="327268097#1" sampledSeconds="2321.87" traveltime="36.78" overlapTraveltime="36.96" density="1.27" occupancy="0.21" waitingTime="0.00" speed="27.53" departed="0" arrived="62" entered="63" left="0" laneChangedFrom="7" laneChangedTo="7"/>
        <edge id="327268097#1-AddedOnRampEdge" sampledSeconds="222.56" traveltime="3.35" overlapTraveltime="3.53" density="1.34" occupancy="0.16" waitingTime="0.00" speed="27.55" departed="0" arrived="0" entered="63" left="63" laneChangedFrom="0" laneChangedTo="0"/>
        <edge id="38245579#0" sampledSeconds="1433.58" traveltime="8.90" overlapTraveltime="9.05" density="2.82" occupancy="0.69" waitingTime="0.00" speed="31.82" departed="0" arrived="0" entered="160" left="158" laneChangedFrom="6" laneChangedTo="6"/>
        <edge id="38245579#1" sampledSeconds="10677.44" traveltime="69.12" overlapTraveltime="69.27" density="2.63" occupancy="0.66" waitingTime="0.00" speed="32.60" departed="0" arrived="150" entered="158" left="0" laneChangedFrom="90" laneChangedTo="90"/>
        <edge id="38245579#1-AddedOnRampEdge" sampledSeconds="469.76" traveltime="2.82" overlapTraveltime="2.97" density="2.83" occupancy="0.45" waitingTime="0.00" speed="32.70" departed="0" arrived="0" entered="158" left="158" laneChangedFrom="5" laneChangedTo="5"/>
        <edge id="398588970" sampledSeconds="0.00" departed="0" arrived="0" entered="0" left="0" laneChangedFrom="0" laneChangedTo="0"/>
        <edge id="40388800" sampledSeconds="1056.16" traveltime="11.50" overlapTraveltime="11.68" density="1.86" occupancy="0.46" waitingTime="0.00" speed="27.42" departed="0" arrived="0" entered="91" left="90" laneChangedFrom="10" laneChangedTo="10"/>
        <edge id="4258460" sampledSeconds="4698.92" traveltime="28.99" overlapTraveltime="29.17" density="3.31" occupancy="0.82" waitingTime="0.00" speed="27.24" departed="0" arrived="0" entered="162" left="160" laneChangedFrom="23" laneChangedTo="23"/>
        <edge id="4258491" sampledSeconds="9.83" traveltime="4.53" overlapTraveltime="4.91" density="0.06" occupancy="0.03" waitingTime="0.00" speed="19.45" departed="0" arrived="0" entered="2" left="2" laneChangedFrom="0" laneChangedTo="0"/>
        <edge id="42872148#0" sampledSeconds="0.00" departed="0" arrived="0" entered="0" left="0" laneChangedFrom="0" laneChangedTo="0"/>
        <edge id="42872148#1" sampledSeconds="0.00" departed="0" arrived="0" entered="0" left="0" laneChangedFrom="0" laneChangedTo="0"/>
        <edge id="42872148#1-AddedOnRampEdge" sampledSeconds="0.00" departed="0" arrived="0" entered="0" left="0" laneChangedFrom="0" laneChangedTo="0"/>