<?xml version="1.0" encoding="UTF-8"?>

<!-- generated on 11/05/19 11:04:15 by Eclipse SUMO Version 1.3.1
<configuration xmlns:xsi="http://www.w3.org/2001/XMLSchema-instance" xsi:noNamespaceSchemaLocation="http://sumo.dlr.de/xsd/sumoConfiguration.xsd">

    <input>
        <net-file value="M50network.net.xml"/>
        <additional-files value="vtypes.add.xml,M50_routes.rou.xml,M50_emitters.emi.xml,M50_detectors.poi.xml,outputs.add.xml"/>
    </input>

    <output>
        <tripinfo-output value="output/tripinfo.out.xml"/>
    </output>

    <time>
        <begin value="0"/>
        <end value="86400"/>
        <step-length value="0.5"/>
    </time>

    <processing>
        <collision.mingap-factor value="0"/>
        <emergencydecel.warning-threshold value="5"/>
    </processing>

    <report>
        <log value="output/log.xml"/>
    </report>

    <gui_only>
        <tracker-interval value="0.5"/>
    </gui_only>

</configuration>
-->

<meandata xmlns:xsi="http://www.w3.org/2001/XMLSchema-instance" xsi:noNamespaceSchemaLocation="http://sumo.dlr.de/xsd/meandata_file.xsd">
    <interval begin="0.00" end="1800.00" id="1">
        <edge id="106130759" sampledSeconds="6615.87" traveltime="29.08" overlapTraveltime="29.27" density="4.64" occupancy="0.58" waitingTime="0.00" speed="27.23" departed="449" arrived="0" entered="0" left="448" laneChangedFrom="239" laneChangedTo="239"/>
        <edge id="106130759-AddedOffRampEdge" sampledSeconds="2177.03" traveltime="4.82" overlapTraveltime="5.06" density="9.70" occupancy="0.94" waitingTime="0.00" speed="25.65" departed="0" arrived="0" entered="432" left="429" laneChangedFrom="50" laneChangedTo="50"/>
        <edge id="106130759.1186" sampledSeconds="7244.17" traveltime="16.22" overlapTraveltime="16.40" density="9.07" occupancy="1.13" waitingTime="0.00" speed="27.37" departed="0" arrived="0" entered="442" left="440" laneChangedFrom="74" laneChangedTo="74"/>
        <edge id="106130759.1630" sampledSeconds="3897.68" traveltime="8.70" overlapTraveltime="8.89" density="9.10" occupancy="1.13" waitingTime="0.00" speed="27.36" departed="0" arrived="0" entered="440" left="438" laneChangedFrom="36" laneChangedTo="36"/>
        <edge id="106130759.1868" sampledSeconds="3748.95" traveltime="8.41" overlapTraveltime="8.59" density="9.06" occupancy="1.12" waitingTime="0.00" speed="27.34" departed="0" arrived="0" entered="438" left="434" laneChangedFrom="38" laneChangedTo="38"/>
        <edge id="106130759.2098" sampledSeconds="5467.28" traveltime="12.42" overlapTraveltime="12.60" density="8.97" occupancy="1.12" waitingTime="0.00" speed="27.28" departed="0" arrived="0" entered="434" left="433" laneChangedFrom="57" laneChangedTo="57"/>
        <edge id="106130759.2437" sampledSeconds="2482.36" traveltime="5.56" overlapTraveltime="5.74" density="9.17" occupancy="1.12" waitingTime="0.00" speed="27.07" departed="0" arrived="0" entered="433" left="432" laneChangedFrom="88" laneChangedTo="88"/>
        <edge id="106130759.791" sampledSeconds="6504.77" traveltime="14.42" overlapTraveltime="14.61" density="9.17" occupancy="1.14" waitingTime="0.00" speed="27.33" departed="0" arrived="0" entered="448" left="442" laneChangedFrom="108" laneChangedTo="108"/>
        <edge id="11955830" sampledSeconds="3689.03" traveltime="16.56" overlapTraveltime="16.87" density="7.59" occupancy="1.25" waitingTime="0.00" speed="16.30" departed="0" arrived="0" entered="220" left="217" laneChangedFrom="58" laneChangedTo="58"/>
        <edge id="11955831" sampledSeconds="1624.27" traveltime="6.80" overlapTraveltime="7.11" density="8.10" occupancy="0.97" waitingTime="0.00" speed="16.37" departed="0" arrived="0" entered="230" left="228" laneChangedFrom="31" laneChangedTo="31"/>
        <edge id="11959492" sampledSeconds="4245.67" traveltime="36.89" overlapTraveltime="37.48" density="8.19" occupancy="4.03" waitingTime="0.00" speed="7.82" departed="0" arrived="0" entered="115" left="111" laneChangedFrom="0" laneChangedTo="0"/>
        <edge id="11994462" sampledSeconds="2024.31" traveltime="21.94" overlapTraveltime="22.52" density="6.41" occupancy="1.56" waitingTime="0.00" speed="8.01" departed="0" arrived="0" entered="90" left="90" laneChangedFrom="16" laneChangedTo="16"/>
        <edge id="11994462-AddedOnRampEdge" sampledSeconds="732.63" traveltime="7.52" overlapTraveltime="8.14" density="6.77" occupancy="1.56" waitingTime="0.00" speed="8.00" departed="0" arrived="0" entered="90" left="90" laneChangedFrom="49" laneChangedTo="49"/>
        <edge id="128189136" sampledSeconds="3613.84" traveltime="15.79" overlapTraveltime="16.10" density="7.88" occupancy="1.95" waitingTime="0.00" speed="16.14" departed="0" arrived="0" entered="226" left="223" laneChangedFrom="42" laneChangedTo="42"/>
        <edge id="146909950#0" sampledSeconds="631.23" traveltime="2.96" overlapTraveltime="3.19" density="5.49" occupancy="0.51" waitingTime="0.00" speed="21.61" departed="0" arrived="0" entered="199" left="198" laneChangedFrom="6" laneChangedTo="6"/>
        <edge id="146909950#1" sampledSeconds="604.88" traveltime="5.31" overlapTraveltime="5.59" density="3.04" occupancy="0.48" waitingTime="0.00" speed="20.69" departed="0" arrived="0" entered="109" left="108" laneChangedFrom="2" laneChangedTo="2"/>
        <edge id="155345296#0" sampledSeconds="418.93" traveltime="16.44" overlapTraveltime="16.76" density="0.91" occupancy="0.22" waitingTime="0.00" speed="15.64" departed="0" arrived="0" entered="25" left="25" laneChangedFrom="2" laneChangedTo="2"/>
        <edge id="155345296#1" sampledSeconds="271.57" traveltime="3.93" overlapTraveltime="4.24" density="2.43" occupancy="0.38" waitingTime="0.00" speed="15.78" departed="0" arrived="0" entered="64" left="64" laneChangedFrom="39" laneChangedTo="39"/>
        <edge id="16403444#0" sampledSeconds="1028.58" traveltime="16.03" overlapTraveltime="16.35" density="2.26" occupancy="0.55" waitingTime="0.00" speed="15.80" departed="0" arrived="0" entered="64" left="62" laneChangedFrom="14" laneChangedTo="14"/>
        <edge id="16403444#1" sampledSeconds="1268.07" traveltime="9.35" overlapTraveltime="9.66" density="4.70" occupancy="0.76" waitingTime="0.00" speed="16.04" departed="0" arrived="0" entered="133" left="131" laneChangedFrom="13" laneChangedTo="13"/>
        <edge id="16403446" sampledSeconds="1567.94" traveltime="6.78" overlapTraveltime="7.09" density="7.92" occupancy="1.92" waitingTime="0.00" speed="16.22" departed="0" arrived="0" entered="221" left="221" laneChangedFrom="3" laneChangedTo="3"/>
        <edge id="16808971" sampledSeconds="1524.79" traveltime="20.96" overlapTraveltime="21.28" density="2.48" occupancy="1.23" waitingTime="0.00" speed="16.31" departed="0" arrived="0" entered="72" left="71" laneChangedFrom="0" laneChangedTo="0"/>
        <edge id="17516648" sampledSeconds="580.20" traveltime="5.92" overlapTraveltime="6.52" density="3.59" occupancy="0.83" waitingTime="0.00" speed="14.54" departed="0" arrived="0" entered="89" left="89" laneChangedFrom="28" laneChangedTo="28"/>
        <edge id="17550539" sampledSeconds="847.38" traveltime="6.17" overlapTraveltime="6.47" density="4.73" occupancy="2.25" waitingTime="0.00" speed="16.15" departed="0" arrived="0" entered="131" left="131" laneChangedFrom="0" laneChangedTo="0"/>
        <edge id="18702678" sampledSeconds="164.22" traveltime="3.77" overlapTraveltime="4.14" density="1.54" occupancy="0.71" waitingTime="0.00" speed="15.48" departed="0" arrived="0" entered="40" left="39" laneChangedFrom="0" laneChangedTo="0"/>
        <edge id="18702680" sampledSeconds="191.57" traveltime="4.60" overlapTraveltime="4.91" density="1.49" occupancy="0.69" waitingTime="0.00" speed="15.57" departed="0" arrived="0" entered="39" left="39" laneChangedFrom="0" laneChangedTo="0"/>
        <edge id="18702682" sampledSeconds="226.91" traveltime="5.45" overlapTraveltime="5.82" density="1.75" occupancy="0.82" waitingTime="0.00" speed="13.27" departed="0" arrived="0" entered="39" left="39" laneChangedFrom="0" laneChangedTo="0"/>
        <edge id="208416643" sampledSeconds="16.05" traveltime="0.69" overlapTraveltime="1.00" density="0.79" occupancy="0.14" waitingTime="0.00" speed="16.27" departed="0" arrived="0" entered="16" left="16" laneChangedFrom="0" laneChangedTo="0"/>
        <edge id="22941414" sampledSeconds="2766.79" traveltime="15.33" overlapTraveltime="15.63" density="6.25" occupancy="1.53" waitingTime="0.00" speed="16.04" departed="0" arrived="0" entered="177" left="177" laneChangedFrom="28" laneChangedTo="28"/>
        <edge id="22941416#0" sampledSeconds="660.60" traveltime="7.45" overlapTraveltime="7.77" density="3.13" occupancy="1.50" waitingTime="0.00" speed="15.72" departed="0" arrived="0" entered="85" left="85" laneChangedFrom="0" laneChangedTo="0"/>
        <edge id="22941416#1" sampledSeconds="1986.17" traveltime="23.19" overlapTraveltime="23.51" density="3.05" occupancy="1.50" waitingTime="0.00" speed="15.62" departed="0" arrived="0" entered="85" left="83" laneChangedFrom="0" laneChangedTo="0"/>
        <edge id="261187938" sampledSeconds="407.10" traveltime="1.87" overlapTraveltime="2.10" density="5.66" occupancy="0.63" waitingTime="0.00" speed="21.43" departed="0" arrived="0" entered="194" left="194" laneChangedFrom="1" laneChangedTo="1"/>
        <edge id="261187938-AddedOffRampEdge" sampledSeconds="940.32" traveltime="4.56" overlapTraveltime="4.85" density="5.45" occupancy="0.64" waitingTime="0.00" speed="20.81" departed="0" arrived="0" entered="194" left="194" laneChangedFrom="11" laneChangedTo="11"/>
        <edge id="261583463" sampledSeconds="251.88" traveltime="12.27" overlapTraveltime="12.59" density="0.70" occupancy="0.35" waitingTime="0.00" speed="16.24" departed="0" arrived="0" entered="20" left="20" laneChangedFrom="0" laneChangedTo="0"/>
        <edge id="261583464" sampledSeconds="1012.86" traveltime="10.92" overlapTraveltime="11.23" density="3.20" occupancy="1.57" waitingTime="0.00" speed="16.13" departed="0" arrived="0" entered="91" left="90" laneChangedFrom="0" laneChangedTo="0"/>
        <edge id="26378010" sampledSeconds="524.73" traveltime="5.44" overlapTraveltime="5.75" density="3.39" occupancy="1.61" waitingTime="0.00" speed="15.83" departed="0" arrived="0" entered="92" left="91" laneChangedFrom="0" laneChangedTo="0"/>
        <edge id="26380527" sampledSeconds="1180.80" traveltime="9.78" overlapTraveltime="10.09" density="2.65" occupancy="0.65" waitingTime="0.00" speed="25.00" departed="0" arrived="0" entered="117" left="117" laneChangedFrom="3" laneChangedTo="3"/>
        <edge id="273755091#2" sampledSeconds="188.68" traveltime="0.69" overlapTraveltime="1.06" density="17.71" occupancy="1.91" waitingTime="31.50" speed="10.36" departed="0" arrived="0" entered="178" left="178" laneChangedFrom="0" laneChangedTo="0"/>
        <edge id="28001589" sampledSeconds="478.16" traveltime="3.89" overlapTraveltime="4.19" density="4.16" occupancy="0.98" waitingTime="0.00" speed="16.44" departed="0" arrived="0" entered="114" left="114" laneChangedFrom="0" laneChangedTo="0"/>
        <edge id="28458821" sampledSeconds="1954.47" traveltime="23.36" overlapTraveltime="23.68" density="2.99" occupancy="1.47" waitingTime="0.00" speed="15.56" departed="0" arrived="0" entered="83" left="82" laneChangedFrom="0" laneChangedTo="0"/>
        <edge id="28458824" sampledSeconds="2441.06" traveltime="27.08" overlapTraveltime="27.39" density="3.14" occupancy="1.56" waitingTime="0.00" speed="15.98" departed="0" arrived="0" entered="90" left="89" laneChangedFrom="0" laneChangedTo="0"/>
        <edge id="28458828" sampledSeconds="1637.63" traveltime="4.99" overlapTraveltime="5.30" density="11.33" occupancy="1.07" waitingTime="0.00" speed="16.10" departed="0" arrived="0" entered="310" left="309" laneChangedFrom="175" laneChangedTo="175"/>
        <edge id="28458895" sampledSeconds="1609.61" traveltime="5.00" overlapTraveltime="5.23" density="8.90" occupancy="1.06" waitingTime="0.00" speed="20.16" departed="0" arrived="0" entered="309" left="307" laneChangedFrom="24" laneChangedTo="24"/>
        <edge id="28531510" sampledSeconds="172.67" traveltime="2.88" overlapTraveltime="3.20" density="2.09" occupancy="0.47" waitingTime="0.00" speed="15.93" departed="0" arrived="0" entered="54" left="54" laneChangedFrom="20" laneChangedTo="20"/>
        <edge id="28531510.48" sampledSeconds="429.01" traveltime="7.63" overlapTraveltime="7.94" density="1.94" occupancy="0.94" waitingTime="0.00" speed="16.12" departed="0" arrived="0" entered="54" left="54" laneChangedFrom="0" laneChangedTo="0"/>
        <edge id="29038677" sampledSeconds="772.74" traveltime="15.99" overlapTraveltime="16.30" density="1.67" occupancy="0.82" waitingTime="0.00" speed="16.12" departed="0" arrived="0" entered="48" left="46" laneChangedFrom="0" laneChangedTo="0"/>
        <edge id="29332864" sampledSeconds="2103.40" traveltime="22.07" overlapTraveltime="22.38" density="3.24" occupancy="1.62" waitingTime="0.00" speed="16.36" departed="0" arrived="0" entered="94" left="94" laneChangedFrom="0" laneChangedTo="0"/>
        <edge id="293596618#1-AddedOffRampEdge" sampledSeconds="2221.91" traveltime="22.69" overlapTraveltime="22.93" density="2.54" occupancy="0.31" waitingTime="0.00" speed="21.43" departed="194" arrived="0" entered="0" left="194" laneChangedFrom="24" laneChangedTo="24"/>
        <edge id="30414032" sampledSeconds="4713.15" traveltime="18.70" overlapTraveltime="19.01" density="8.75" occupancy="4.30" waitingTime="0.00" speed="16.00" departed="0" arrived="0" entered="249" left="247" laneChangedFrom="0" laneChangedTo="0"/>
        <edge id="319144060" sampledSeconds="3061.87" traveltime="16.80" overlapTraveltime="17.11" density="6.29" occupancy="1.03" waitingTime="0.00" speed="16.10" departed="333" arrived="0" entered="0" left="332" laneChangedFrom="24" laneChangedTo="24"/>
        <edge id="328393125" sampledSeconds="2989.67" traveltime="11.28" overlapTraveltime="11.46" density="5.39" occupancy="0.66" waitingTime="0.00" speed="27.33" departed="0" arrived="0" entered="261" left="260" laneChangedFrom="76" laneChangedTo="76"/>
        <edge id="328393125-AddedOnRampEdge" sampledSeconds="1195.85" traveltime="4.38" overlapTraveltime="4.57" density="6.58" occupancy="0.63" waitingTime="0.00" speed="23.19" departed="0" arrived="0" entered="262" left="261" laneChangedFrom="41" laneChangedTo="41"/>
        <edge id="332655578" sampledSeconds="3637.29" traveltime="40.30" overlapTraveltime="40.87" density="6.19" occupancy="1.52" waitingTime="0.00" speed="8.11" departed="0" arrived="0" entered="89" left="89" laneChangedFrom="118" laneChangedTo="118"/>
        <edge id="332655581" sampledSeconds="860.74" traveltime="7.56" overlapTraveltime="7.80" density="4.07" occupancy="1.93" waitingTime="0.00" speed="15.70" departed="0" arrived="0" entered="111" left="110" laneChangedFrom="0" laneChangedTo="0"/>
        <edge id="345616204#1" sampledSeconds="4331.14" traveltime="12.05" overlapTraveltime="12.24" density="7.29" occupancy="0.90" waitingTime="0.00" speed="27.41" departed="0" arrived="0" entered="354" left="354" laneChangedFrom="63" laneChangedTo="63"/>
        <edge id="345616204#1-AddedOnRampEdge" sampledSeconds="1351.86" traveltime="3.63" overlapTraveltime="3.82" density="8.16" occupancy="0.78" waitingTime="0.00" speed="25.42" departed="0" arrived="0" entered="354" left="354" laneChangedFrom="127" laneChangedTo="127"/>
        <edge id="345616204#1.334" sampledSeconds="4189.44" traveltime="11.70" overlapTraveltime="11.88" density="7.23" occupancy="0.90" waitingTime="0.00" speed="27.49" departed="0" arrived="0" entered="354" left="351" laneChangedFrom="46" laneChangedTo="46"/>
        <edge id="345616204#1.655" sampledSeconds="4887.91" traveltime="13.82" overlapTraveltime="14.00" density="7.16" occupancy="0.89" waitingTime="0.00" speed="27.46" departed="0" arrived="349" entered="351" left="0" laneChangedFrom="9" laneChangedTo="9"/>
        <edge id="360361373" sampledSeconds="5015.30" traveltime="17.20" overlapTraveltime="17.39" density="6.07" occupancy="0.75" waitingTime="0.00" speed="26.70" departed="0" arrived="0" entered="290" left="288" laneChangedFrom="56" laneChangedTo="56"/>
        <edge id="360361373-AddedOffRampEdge" sampledSeconds="1020.35" traveltime="3.50" overlapTraveltime="3.68" density="6.08" occupancy="0.58" waitingTime="0.00" speed="26.67" departed="0" arrived="0" entered="277" left="277" laneChangedFrom="74" laneChangedTo="74"/>
        <edge id="360361373-AddedOnRampEdge" sampledSeconds="1137.33" traveltime="3.73" overlapTraveltime="3.92" density="6.86" occupancy="0.65" waitingTime="0.00" speed="24.75" departed="0" arrived="0" entered="290" left="290" laneChangedFrom="111" laneChangedTo="111"/>
        <edge id="360361373.1498" sampledSeconds="4279.35" traveltime="14.99" overlapTraveltime="15.18" density="5.93" occupancy="0.73" waitingTime="0.00" speed="26.77" departed="0" arrived="0" entered="282" left="282" laneChangedFrom="26" laneChangedTo="26"/>
        <edge id="360361373.1899" sampledSeconds="3356.28" traveltime="11.77" overlapTraveltime="11.96" density="5.92" occupancy="0.73" waitingTime="0.00" speed="26.76" departed="0" arrived="0" entered="282" left="280" laneChangedFrom="35" laneChangedTo="35"/>
        <edge id="360361373.2215" sampledSeconds="4499.44" traveltime="15.97" overlapTraveltime="16.16" density="5.85" occupancy="0.72" waitingTime="0.00" speed="26.77" departed="0" arrived="0" entered="280" left="277" laneChangedFrom="35" laneChangedTo="35"/>
        <edge id="360361373.2643" sampledSeconds="4308.33" traveltime="15.37" overlapTraveltime="15.56" density="5.82" occupancy="0.72" waitingTime="0.00" speed="26.75" departed="0" arrived="0" entered="277" left="277" laneChangedFrom="42" laneChangedTo="42"/>
        <edge id="360361373.463" sampledSeconds="5631.04" traveltime="19.38" overlapTraveltime="19.57" density="6.03" occupancy="0.75" waitingTime="0.00" speed="26.76" departed="0" arrived="0" entered="288" left="287" laneChangedFrom="66" laneChangedTo="66"/>
        <edge id="360361373.981" sampledSeconds="5543.30" traveltime="19.29" overlapTraveltime="19.48" density="5.97" occupancy="0.74" waitingTime="0.00" speed="26.74" departed="0" arrived="0" entered="287" left="282" laneChangedFrom="64" laneChangedTo="64"/>
        <edge id="4074534" sampledSeconds="331.41" traveltime="4.86" overlapTraveltime="5.18" density="2.39" occupancy="0.56" waitingTime="0.00" speed="15.85" departed="0" arrived="0" entered="64" left="64" laneChangedFrom="11" laneChangedTo="11"/>
        <edge id="41517592" sampledSeconds="889.35" traveltime="9.81" overlapTraveltime="10.00" density="2.79" occupancy="0.67" waitingTime="0.00" speed="18.21" departed="0" arrived="0" entered="90" left="88" laneChangedFrom="79" laneChangedTo="79"/>
        <edge id="428960734" sampledSeconds="6691.41" traveltime="21.91" overlapTraveltime="22.14" density="7.82" occupancy="0.97" waitingTime="0.00" speed="21.70" departed="0" arrived="301" entered="306" left="0" laneChangedFrom="49" laneChangedTo="49"/>
        <edge id="428960735" sampledSeconds="922.81" traveltime="2.78" overlapTraveltime="3.01" density="8.52" occupancy="0.99" waitingTime="0.00" speed="21.65" departed="0" arrived="0" entered="307" left="306" laneChangedFrom="11" laneChangedTo="11"/>
        <edge id="429432523" sampledSeconds="2209.32" traveltime="6.85" overlapTraveltime="7.15" density="11.08" occupancy="1.33" waitingTime="0.00" speed="16.20" departed="0" arrived="0" entered="309" left="309" laneChangedFrom="60" laneChangedTo="60"/>
        <edge id="429432524" sampledSeconds="1733.64" traveltime="7.54" overlapTraveltime="7.85" density="5.06" occupancy="0.82" waitingTime="0.00" speed="24.89" departed="0" arrived="0" entered="222" left="220" laneChangedFrom="53" laneChangedTo="53"/>
        <edge id="429432526" sampledSeconds="4754.78" traveltime="28.15" overlapTraveltime="28.46" density="5.74" occupancy="1.43" waitingTime="0.00" speed="16.35" departed="0" arrived="0" entered="168" left="166" laneChangedFrom="28" laneChangedTo="28"/>
        <edge id="429432925" sampledSeconds="146.46" traveltime="0.16" overlapTraveltime="0.47" density="30.82" occupancy="1.33" waitingTime="0.00" speed="16.15" departed="0" arrived="0" entered="309" left="309" laneChangedFrom="1" laneChangedTo="1"/>
        <edge id="431199180" sampledSeconds="584.80" traveltime="3.08" overlapTraveltime="3.32" density="5.32" occupancy="0.61" waitingTime="0.00" speed="19.90" departed="0" arrived="0" entered="177" left="176" laneChangedFrom="5" laneChangedTo="5"/>
        <edge id="4402237" sampledSeconds="298.63" traveltime="4.35" overlapTraveltime="4.67" density="2.42" occupancy="0.38" waitingTime="0.00" speed="15.79" departed="0" arrived="0" entered="64" left="64" laneChangedFrom="7" laneChangedTo="7"/>
        <edge id="4402297" sampledSeconds="2733.37" traveltime="13.07" overlapTraveltime="13.25" density="4.23" occupancy="0.70" waitingTime="0.00" speed="27.45" departed="0" arrived="0" entered="208" left="206" laneChangedFrom="26" laneChangedTo="26"/>
        <edge id="4404096" sampledSeconds="959.09" traveltime="13.40" overlapTraveltime="13.70" density="2.43" occupancy="0.40" waitingTime="0.00" speed="16.35" departed="0" arrived="0" entered="70" left="70" laneChangedFrom="40" laneChangedTo="40"/>
        <edge id="4414080#0" sampledSeconds="2681.28" traveltime="9.46" overlapTraveltime="9.68" density="5.97" occupancy="0.59" waitingTime="0.00" speed="26.29" departed="0" arrived="0" entered="277" left="276" laneChangedFrom="33" laneChangedTo="33"/>
        <edge id="4414080#0.187" sampledSeconds="2512.59" traveltime="17.44" overlapTraveltime="17.63" density="2.97" occupancy="0.49" waitingTime="0.00" speed="26.92" departed="0" arrived="0" entered="143" left="142" laneChangedFrom="31" laneChangedTo="31"/>
        <edge id="4414080#0.756" sampledSeconds="547.53" traveltime="1.98" overlapTraveltime="2.17" density="6.36" occupancy="0.72" waitingTime="0.00" speed="24.34" departed="0" arrived="0" entered="252" left="252" laneChangedFrom="119" laneChangedTo="119"/>
        <edge id="4414080#0.756.47" sampledSeconds="557.66" traveltime="2.02" overlapTraveltime="2.21" density="5.84" occupancy="0.89" waitingTime="0.00" speed="26.24" departed="0" arrived="0" entered="252" left="252" laneChangedFrom="13" laneChangedTo="13"/>
        <edge id="4414080#1-AddedOnRampEdge" sampledSeconds="4322.71" traveltime="12.90" overlapTraveltime="13.09" density="7.00" occupancy="0.86" waitingTime="0.00" speed="26.61" departed="0" arrived="0" entered="333" left="328" laneChangedFrom="152" laneChangedTo="152"/>
        <edge id="4414080#1-AddedOnRampEdge.343" sampledSeconds="4076.58" traveltime="12.27" overlapTraveltime="12.45" density="6.83" occupancy="0.84" waitingTime="0.00" speed="27.04" departed="0" arrived="0" entered="328" left="327" laneChangedFrom="103" laneChangedTo="103"/>
        <edge id="4414080#1-AddedOnRampEdge.675" sampledSeconds="2895.98" traveltime="8.70" overlapTraveltime="8.88" density="6.83" occupancy="0.84" waitingTime="0.00" speed="27.07" departed="0" arrived="0" entered="327" left="326" laneChangedFrom="38" laneChangedTo="38"/>
        <edge id="457424511#3" sampledSeconds="3485.07" traveltime="25.25" overlapTraveltime="25.56" density="4.67" occupancy="0.78" waitingTime="0.00" speed="16.42" departed="274" arrived="0" entered="0" left="273" laneChangedFrom="116" laneChangedTo="116"/>
        <edge id="457424511#3.414" sampledSeconds="6208.22" traveltime="22.48" overlapTraveltime="22.82" density="9.41" occupancy="1.56" waitingTime="0.00" speed="16.28" departed="0" arrived="0" entered="273" left="270" laneChangedFrom="150" laneChangedTo="150"/>
        <edge id="48290550" sampledSeconds="11552.65" traveltime="27.17" overlapTraveltime="27.35" density="8.66" occupancy="1.08" waitingTime="0.00" speed="27.29" departed="0" arrived="0" entered="424" left="421" laneChangedFrom="183" laneChangedTo="183"/>
        <edge id="48290550-AddedOffRampEdge" sampledSeconds="1824.36" traveltime="4.30" overlapTraveltime="4.55" density="9.21" occupancy="0.73" waitingTime="0.00" speed="25.29" departed="0" arrived="0" entered="402" left="401" laneChangedFrom="117" laneChangedTo="117"/>
        <edge id="48290550.1176" sampledSeconds="4737.45" traveltime="11.12" overlapTraveltime="11.30" density="8.65" occupancy="1.07" waitingTime="0.00" speed="27.36" departed="0" arrived="0" entered="420" left="418" laneChangedFrom="57" laneChangedTo="57"/>
        <edge id="48290550.1480" sampledSeconds="6120.29" traveltime="14.55" overlapTraveltime="14.73" density="8.54" occupancy="1.06" waitingTime="0.00" speed="27.39" departed="0" arrived="0" entered="418" left="413" laneChangedFrom="60" laneChangedTo="60"/>
        <edge id="48290550.1878" sampledSeconds="7809.95" traveltime="18.77" overlapTraveltime="18.95" density="8.44" occupancy="1.05" waitingTime="0.00" speed="27.38" departed="0" arrived="0" entered="413" left="411" laneChangedFrom="71" laneChangedTo="71"/>
        <edge id="48290550.2391" sampledSeconds="7732.71" traveltime="18.75" overlapTraveltime="18.94" density="8.38" occupancy="1.04" waitingTime="0.00" speed="27.34" departed="0" arrived="0" entered="411" left="406" laneChangedFrom="65" laneChangedTo="65"/>
        <edge id="48290550.2904" sampledSeconds="5225.52" traveltime="12.70" overlapTraveltime="12.89" density="8.42" occupancy="1.04" waitingTime="0.00" speed="27.14" departed="0" arrived="0" entered="406" left="405" laneChangedFrom="139" laneChangedTo="139"/>
        <edge id="48290550.3266" sampledSeconds="1406.49" traveltime="3.30" overlapTraveltime="3.48" density="8.78" occupancy="0.84" waitingTime="0.00" speed="26.99" departed="0" arrived="0" entered="405" left="402" laneChangedFrom="66" laneChangedTo="66"/>
        <edge id="48290550.745" sampledSeconds="6705.15" traveltime="15.75" overlapTraveltime="15.94" density="8.64" occupancy="1.07" waitingTime="0.00" speed="27.36" departed="0" arrived="0" entered="421" left="420" laneChangedFrom="77" laneChangedTo="77"/>
        <edge id="48290551#0" sampledSeconds="1620.31" traveltime="19.51" overlapTraveltime="19.83" density="2.89" occupancy="0.71" waitingTime="0.00" speed="15.96" departed="0" arrived="0" entered="82" left="81" laneChangedFrom="79" laneChangedTo="79"/>
        <edge id="48290551#1" sampledSeconds="1833.86" traveltime="7.72" overlapTraveltime="8.04" density="8.22" occupancy="1.33" waitingTime="0.00" speed="16.05" departed="0" arrived="0" entered="229" left="226" laneChangedFrom="78" laneChangedTo="78"/>
        <edge id="48290552" sampledSeconds="1103.87" traveltime="8.95" overlapTraveltime="9.57" density="4.56" occupancy="2.17" waitingTime="0.00" speed="14.56" departed="0" arrived="0" entered="116" left="115" laneChangedFrom="0" laneChangedTo="0"/>
        <edge id="48516115" sampledSeconds="2164.56" traveltime="10.62" overlapTraveltime="10.85" density="5.21" occupancy="0.51" waitingTime="0.00" speed="21.73" departed="0" arrived="0" entered="200" left="199" laneChangedFrom="14" laneChangedTo="14"/>
        <edge id="48516117" sampledSeconds="1863.93" traveltime="17.76" overlapTraveltime="17.99" density="2.66" occupancy="0.33" waitingTime="0.00" speed="21.92" departed="201" arrived="0" entered="0" left="201" laneChangedFrom="33" laneChangedTo="33"/>
        <edge id="48516117.389" sampledSeconds="4916.96" traveltime="24.31" overlapTraveltime="24.53" density="5.17" occupancy="0.64" waitingTime="0.00" speed="21.75" departed="0" arrived="0" entered="201" left="200" laneChangedFrom="162" laneChangedTo="162"/>
        <edge id="489961226" sampledSeconds="591.53" traveltime="4.74" overlapTraveltime="5.06" density="4.37" occupancy="1.02" waitingTime="0.00" speed="15.87" departed="0" arrived="0" entered="117" left="117" laneChangedFrom="2" laneChangedTo="2"/>
        <edge id="491989399#0" sampledSeconds="1041.85" traveltime="4.44" overlapTraveltime="4.67" density="6.43" occupancy="1.02" waitingTime="0.00" speed="20.34" departed="0" arrived="0" entered="223" left="223" laneChangedFrom="21" laneChangedTo="21"/>
        <edge id="491989399#1-AddedOnRampEdge" sampledSeconds="7818.14" traveltime="24.58" overlapTraveltime="24.82" density="8.21" occupancy="1.02" waitingTime="0.00" speed="21.52" departed="0" arrived="0" entered="316" left="314" laneChangedFrom="231" laneChangedTo="231"/>
        <edge id="491989399#1-AddedOnRampEdge.533" sampledSeconds="5758.37" traveltime="18.20" overlapTraveltime="18.44" density="8.16" occupancy="1.01" waitingTime="0.00" speed="21.53" departed="0" arrived="0" entered="314" left="310" laneChangedFrom="62" laneChangedTo="62"/>
        <edge id="491989399#1-AddedOnRampEdge.925" sampledSeconds="5684.19" traveltime="18.28" overlapTraveltime="18.51" density="8.02" occupancy="1.00" waitingTime="0.00" speed="21.53" departed="0" arrived="306" entered="310" left="0" laneChangedFrom="34" laneChangedTo="34"/>
        <edge id="492226824" sampledSeconds="459.64" traveltime="4.70" overlapTraveltime="4.94" density="2.82" occupancy="1.33" waitingTime="0.00" speed="19.34" departed="0" arrived="0" entered="93" left="93" laneChangedFrom="0" laneChangedTo="0"/>
        <edge id="492226827" sampledSeconds="1741.55" traveltime="19.26" overlapTraveltime="19.57" density="3.05" occupancy="0.75" waitingTime="0.00" speed="16.48" departed="0" arrived="0" entered="89" left="89" laneChangedFrom="28" laneChangedTo="28"/>
        <edge id="492226831" sampledSeconds="2053.45" traveltime="15.12" overlapTraveltime="15.44" density="4.78" occupancy="1.17" waitingTime="0.00" speed="15.78" departed="0" arrived="0" entered="133" left="133" laneChangedFrom="12" laneChangedTo="12"/>
        <edge id="492229071" sampledSeconds="1011.35" traveltime="7.53" overlapTraveltime="7.72" density="3.32" occupancy="1.61" waitingTime="0.00" speed="22.55" departed="0" arrived="0" entered="131" left="131" laneChangedFrom="0" laneChangedTo="0"/>