<?xml version="1.0" encoding="UTF-8"?>

<!-- generated on 12/11/19 10:49:05 by Eclipse SUMO Version 1.3.1
<configuration xmlns:xsi="http://www.w3.org/2001/XMLSchema-instance" xsi:noNamespaceSchemaLocation="http://sumo.dlr.de/xsd/sumoConfiguration.xsd">

    <input>
        <net-file value="N7_network.net.xml"/>
        <additional-files value="vtypes.add.xml,N7_routes.rou.xml,N7_emitters.emi.xml,N7_detectors.poi.xml,outputs.add.xml"/>
    </input>

    <time>
        <begin value="0"/>
        <end value="86400"/>
        <step-length value="0.5"/>
    </time>

    <processing>
        <collision.mingap-factor value="0"/>
        <emergencydecel.warning-threshold value="5"/>
    </processing>

    <report>
        <log value="output/log.xml"/>
    </report>

    <gui_only>
        <tracker-interval value="0.5"/>
    </gui_only>

</configuration>
-->

<meandata xmlns:xsi="http://www.w3.org/2001/XMLSchema-instance" xsi:noNamespaceSchemaLocation="http://sumo.dlr.de/xsd/meandata_file.xsd">
    <interval begin="0.00" end="1800.00" id="1">
        <edge id="-123961786" sampledSeconds="0.00" departed="0" arrived="0" entered="0" left="0" laneChangedFrom="0" laneChangedTo="0"/>
        <edge id="-123961980" sampledSeconds="19.67" traveltime="6.48" overlapTraveltime="6.78" density="0.10" occupancy="0.05" waitingTime="0.00" speed="16.97" departed="0" arrived="3" entered="3" left="0" laneChangedFrom="0" laneChangedTo="0"/>
        <edge id="-128052719" sampledSeconds="7.07" traveltime="6.89" overlapTraveltime="7.12" density="0.03" occupancy="0.01" waitingTime="0.00" speed="22.50" departed="0" arrived="1" entered="1" left="0" laneChangedFrom="0" laneChangedTo="0"/>
        <edge id="-128497195" sampledSeconds="0.00" departed="0" arrived="0" entered="0" left="0" laneChangedFrom="0" laneChangedTo="0"/>
        <edge id="-22661031#2" sampledSeconds="0.00" departed="0" arrived="0" entered="0" left="0" laneChangedFrom="0" laneChangedTo="0"/>
        <edge id="-22907450" sampledSeconds="0.00" departed="0" arrived="0" entered="0" left="0" laneChangedFrom="0" laneChangedTo="0"/>
        <edge id="-275503318#2" sampledSeconds="17.80" traveltime="5.80" overlapTraveltime="6.21" density="0.15" occupancy="0.07" waitingTime="0.00" speed="11.19" departed="0" arrived="3" entered="3" left="0" laneChangedFrom="0" laneChangedTo="0"/>
        <edge id="-8296126#3" sampledSeconds="11.45" traveltime="5.40" overlapTraveltime="5.76" density="0.09" occupancy="0.04" waitingTime="0.00" speed="13.84" departed="0" arrived="2" entered="2" left="0" laneChangedFrom="0" laneChangedTo="0"/>
        <edge id="-86382092" sampledSeconds="0.00" departed="0" arrived="0" entered="0" left="0" laneChangedFrom="0" laneChangedTo="0"/>
        <edge id="-86382126" sampledSeconds="0.00" departed="0" arrived="0" entered="0" left="0" laneChangedFrom="0" laneChangedTo="0"/>
        <edge id="123959660" sampledSeconds="0.00" departed="0" arrived="0" entered="0" left="0" laneChangedFrom="0" laneChangedTo="0"/>
        <edge id="123959844" sampledSeconds="0.00" departed="0" arrived="0" entered="0" left="0" laneChangedFrom="0" laneChangedTo="0"/>
        <edge id="123960179" sampledSeconds="60.73" traveltime="14.88" overlapTraveltime="15.18" density="0.08" occupancy="0.04" waitingTime="0.00" speed="26.54" departed="0" arrived="0" entered="4" left="4" laneChangedFrom="0" laneChangedTo="0"/>
        <edge id="123960426" sampledSeconds="0.00" departed="0" arrived="0" entered="0" left="0" laneChangedFrom="0" laneChangedTo="0"/>
        <edge id="123960478" sampledSeconds="0.00" departed="0" arrived="0" entered="0" left="0" laneChangedFrom="0" laneChangedTo="0"/>
        <edge id="123960508" sampledSeconds="0.00" departed="0" arrived="0" entered="0" left="0" laneChangedFrom="0" laneChangedTo="0"/>
        <edge id="123961229#0" sampledSeconds="441.15" traveltime="6.12" overlapTraveltime="6.30" density="1.46" occupancy="0.24" waitingTime="0.00" speed="27.37" departed="0" arrived="0" entered="70" left="70" laneChangedFrom="4" laneChangedTo="4"/>
        <edge id="123961229#1" sampledSeconds="3059.19" traveltime="45.48" overlapTraveltime="45.66" density="1.36" occupancy="0.23" waitingTime="0.00" speed="27.43" departed="0" arrived="0" entered="67" left="67" laneChangedFrom="9" laneChangedTo="9"/>
        <edge id="123961229#1-AddedOffRampEdge" sampledSeconds="236.98" traveltime="3.35" overlapTraveltime="3.54" density="1.43" occupancy="0.17" waitingTime="0.00" speed="27.44" departed="0" arrived="0" entered="67" left="67" laneChangedFrom="0" laneChangedTo="0"/>
        <edge id="123961229#1-AddedOnRampEdge" sampledSeconds="244.47" traveltime="3.36" overlapTraveltime="3.54" density="1.48" occupancy="0.17" waitingTime="0.00" speed="27.39" departed="0" arrived="0" entered="70" left="68" laneChangedFrom="1" laneChangedTo="1"/>
        <edge id="123961236#0" sampledSeconds="1490.59" traveltime="6.85" overlapTraveltime="7.03" density="4.47" occupancy="0.73" waitingTime="0.00" speed="27.08" departed="0" arrived="0" entered="212" left="212" laneChangedFrom="12" laneChangedTo="12"/>
        <edge id="123961236#1" sampledSeconds="15079.81" traveltime="72.74" overlapTraveltime="72.92" density="4.25" occupancy="0.71" waitingTime="0.00" speed="27.08" departed="0" arrived="0" entered="210" left="200" laneChangedFrom="144" laneChangedTo="144"/>
        <edge id="123961236#1-AddedOffRampEdge" sampledSeconds="716.01" traveltime="3.39" overlapTraveltime="3.58" density="4.32" occupancy="0.51" waitingTime="0.00" speed="27.11" departed="0" arrived="0" entered="200" left="200" laneChangedFrom="8" laneChangedTo="8"/>
        <edge id="123961236#1-AddedOnRampEdge" sampledSeconds="756.51" traveltime="3.40" overlapTraveltime="3.59" density="4.56" occupancy="0.54" waitingTime="0.00" speed="27.08" departed="0" arrived="0" entered="212" left="210" laneChangedFrom="4" laneChangedTo="4"/>
        <edge id="123961236#12" sampledSeconds="6547.88" traveltime="38.21" overlapTraveltime="38.40" density="3.50" occupancy="0.58" waitingTime="0.00" speed="27.20" departed="0" arrived="0" entered="173" left="167" laneChangedFrom="59" laneChangedTo="59"/>
        <edge id="123961236#13" sampledSeconds="1914.27" traveltime="11.35" overlapTraveltime="11.53" density="3.44" occupancy="0.57" waitingTime="0.00" speed="27.24" departed="0" arrived="0" entered="166" left="166" laneChangedFrom="69" laneChangedTo="69"/>
        <edge id="123961236#13-AddedOffRampEdge" sampledSeconds="591.76" traveltime="3.38" overlapTraveltime="3.56" density="3.57" occupancy="0.42" waitingTime="0.00" speed="27.22" departed="0" arrived="0" entered="166" left="166" laneChangedFrom="5" laneChangedTo="5"/>
        <edge id="123961236#13-AddedOnRampEdge" sampledSeconds="592.37" traveltime="3.37" overlapTraveltime="3.56" density="3.58" occupancy="0.43" waitingTime="0.00" speed="27.27" departed="0" arrived="0" entered="167" left="166" laneChangedFrom="21" laneChangedTo="21"/>
        <edge id="123961236#6" sampledSeconds="1524.24" traveltime="7.54" overlapTraveltime="7.73" density="4.14" occupancy="0.68" waitingTime="0.00" speed="27.10" departed="0" arrived="0" entered="198" left="197" laneChangedFrom="9" laneChangedTo="9"/>
        <edge id="123961236#7" sampledSeconds="3820.11" traveltime="19.31" overlapTraveltime="19.49" density="4.05" occupancy="0.67" waitingTime="0.00" speed="27.15" departed="0" arrived="0" entered="197" left="195" laneChangedFrom="26" laneChangedTo="26"/>
        <edge id="123961236#7-AddedOffRampEdge" sampledSeconds="695.95" traveltime="3.39" overlapTraveltime="3.57" density="4.21" occupancy="0.50" waitingTime="0.00" speed="27.14" departed="0" arrived="0" entered="195" left="195" laneChangedFrom="0" laneChangedTo="0"/>
        <edge id="123961236#7-AddedOnRampEdge" sampledSeconds="704.91" traveltime="3.39" overlapTraveltime="3.58" density="4.25" occupancy="0.51" waitingTime="0.00" speed="27.14" departed="0" arrived="0" entered="197" left="197" laneChangedFrom="7" laneChangedTo="7"/>
        <edge id="123961236#8" sampledSeconds="8149.56" traveltime="42.93" overlapTraveltime="43.12" density="3.88" occupancy="0.65" waitingTime="0.00" speed="27.16" departed="0" arrived="0" entered="192" left="186" laneChangedFrom="75" laneChangedTo="75"/>
        <edge id="123961236#9" sampledSeconds="10955.01" traveltime="60.16" overlapTraveltime="60.35" density="3.71" occupancy="0.62" waitingTime="0.00" speed="27.24" departed="0" arrived="0" entered="186" left="177" laneChangedFrom="93" laneChangedTo="93"/>
        <edge id="123961236#9-AddedOffRampEdge" sampledSeconds="697.10" traveltime="3.75" overlapTraveltime="3.94" density="3.78" occupancy="0.45" waitingTime="0.00" speed="27.27" departed="0" arrived="0" entered="177" left="177" laneChangedFrom="30" laneChangedTo="30"/>
        <edge id="123961236#9-AddedOnRampEdge" sampledSeconds="663.03" traveltime="3.38" overlapTraveltime="3.56" density="4.00" occupancy="0.48" waitingTime="0.00" speed="27.21" departed="0" arrived="0" entered="186" left="186" laneChangedFrom="4" laneChangedTo="4"/>
        <edge id="123961786" sampledSeconds="0.00" departed="0" arrived="0" entered="0" left="0" laneChangedFrom="0" laneChangedTo="0"/>
        <edge id="123961980" sampledSeconds="0.00" departed="0" arrived="0" entered="0" left="0" laneChangedFrom="0" laneChangedTo="0"/>
        <edge id="123962072" sampledSeconds="4901.41" traveltime="20.15" overlapTraveltime="20.33" density="4.97" occupancy="0.82" waitingTime="0.00" speed="27.22" departed="0" arrived="0" entered="243" left="239" laneChangedFrom="72" laneChangedTo="72"/>
        <edge id="123962130-AddedOffRampEdge" sampledSeconds="873.34" traveltime="3.38" overlapTraveltime="3.57" density="5.27" occupancy="0.63" waitingTime="0.00" speed="27.20" departed="0" arrived="0" entered="245" left="244" laneChangedFrom="18" laneChangedTo="18"/>
        <edge id="123962130.2472" sampledSeconds="3756.97" traveltime="30.09" overlapTraveltime="30.27" density="2.55" occupancy="0.42" waitingTime="0.00" speed="27.19" departed="245" arrived="0" entered="0" left="245" laneChangedFrom="126" laneChangedTo="126"/>
        <edge id="123965879#0" sampledSeconds="1955.99" traveltime="24.47" overlapTraveltime="24.66" density="1.63" occupancy="0.27" waitingTime="0.00" speed="27.30" departed="0" arrived="0" entered="80" left="78" laneChangedFrom="12" laneChangedTo="12"/>
        <edge id="123965879#1" sampledSeconds="4063.62" traveltime="53.70" overlapTraveltime="53.89" density="1.54" occupancy="0.26" waitingTime="0.00" speed="27.37" departed="0" arrived="0" entered="77" left="74" laneChangedFrom="17" laneChangedTo="17"/>
        <edge id="123965879#1-AddedOffRampEdge" sampledSeconds="262.80" traveltime="3.37" overlapTraveltime="3.55" density="1.59" occupancy="0.19" waitingTime="0.00" speed="27.33" departed="0" arrived="0" entered="74" left="74" laneChangedFrom="2" laneChangedTo="2"/>
        <edge id="123965879#1-AddedOnRampEdge" sampledSeconds="273.01" traveltime="3.36" overlapTraveltime="3.54" density="1.65" occupancy="0.20" waitingTime="0.00" speed="27.31" departed="0" arrived="0" entered="78" left="77" laneChangedFrom="1" laneChangedTo="1"/>
        <edge id="123965879#3" sampledSeconds="443.40" traveltime="5.93" overlapTraveltime="6.12" density="1.52" occupancy="0.25" waitingTime="0.00" speed="27.37" departed="0" arrived="0" entered="73" left="72" laneChangedFrom="3" laneChangedTo="3"/>
        <edge id="123965879#4" sampledSeconds="4566.44" traveltime="63.57" overlapTraveltime="63.75" density="1.46" occupancy="0.24" waitingTime="0.00" speed="27.42" departed="0" arrived="0" entered="72" left="70" laneChangedFrom="19" laneChangedTo="19"/>
        <edge id="123965879#4-AddedOffRampEdge" sampledSeconds="248.48" traveltime="3.37" overlapTraveltime="3.55" density="1.50" occupancy="0.18" waitingTime="0.00" speed="27.37" departed="0" arrived="0" entered="70" left="70" laneChangedFrom="1" laneChangedTo="1"/>
        <edge id="123965879#4-AddedOnRampEdge" sampledSeconds="254.90" traveltime="3.36" overlapTraveltime="3.54" density="1.54" occupancy="0.18" waitingTime="0.00" speed="27.41" departed="0" arrived="0" entered="72" left="72" laneChangedFrom="1" laneChangedTo="1"/>
        <edge id="123966730" sampledSeconds="82.80" traveltime="13.49" overlapTraveltime="13.80" density="0.13" occupancy="0.07" waitingTime="0.00" speed="25.39" departed="0" arrived="0" entered="6" left="6" laneChangedFrom="0" laneChangedTo="0"/>
        <edge id="123967087" sampledSeconds="0.00" departed="0" arrived="0" entered="0" left="0" laneChangedFrom="0" laneChangedTo="0"/>
        <edge id="123967236#0" sampledSeconds="2961.90" traveltime="33.53" overlapTraveltime="33.71" density="1.80" occupancy="0.30" waitingTime="0.00" speed="27.29" departed="0" arrived="0" entered="90" left="86" laneChangedFrom="12" laneChangedTo="12"/>
        <edge id="123967236#1" sampledSeconds="5532.36" traveltime="64.15" overlapTraveltime="64.33" density="1.76" occupancy="0.29" waitingTime="0.00" speed="27.27" departed="0" arrived="0" entered="86" left="86" laneChangedFrom="17" laneChangedTo="17"/>
        <edge id="123967236#1-AddedOffRampEdge" sampledSeconds="306.07" traveltime="3.38" overlapTraveltime="3.56" density="1.85" occupancy="0.22" waitingTime="0.00" speed="27.26" departed="0" arrived="0" entered="86" left="86" laneChangedFrom="2" laneChangedTo="2"/>
        <edge id="123967236#1-AddedOnRampEdge" sampledSeconds="305.78" traveltime="3.37" overlapTraveltime="3.56" density="1.85" occupancy="0.22" waitingTime="0.00" speed="27.28" departed="0" arrived="0" entered="86" left="86" laneChangedFrom="1" laneChangedTo="1"/>
        <edge id="123969747" sampledSeconds="2616.89" traveltime="28.89" overlapTraveltime="29.08" density="1.84" occupancy="0.31" waitingTime="0.00" speed="27.30" departed="0" arrived="0" entered="90" left="90" laneChangedFrom="83" laneChangedTo="83"/>
        <edge id="123969747-AddedOffRampEdge" sampledSeconds="332.87" traveltime="3.52" overlapTraveltime="3.70" density="1.93" occupancy="0.31" waitingTime="0.00" speed="27.31" departed="0" arrived="0" entered="90" left="90" laneChangedFrom="1" laneChangedTo="1"/>
        <edge id="123969747-AddedOnRampEdge" sampledSeconds="301.14" traveltime="3.16" overlapTraveltime="3.35" density="1.94" occupancy="0.31" waitingTime="0.00" speed="27.24" departed="0" arrived="0" entered="90" left="90" laneChangedFrom="0" laneChangedTo="0"/>
        <edge id="128052719" sampledSeconds="0.00" departed="0" arrived="0" entered="0" left="0" laneChangedFrom="0" laneChangedTo="0"/>
        <edge id="128497195" sampledSeconds="9.39" traveltime="4.64" overlapTraveltime="4.91" density="0.06" occupancy="0.03" waitingTime="0.00" speed="17.74" departed="0" arrived="2" entered="2" left="0" laneChangedFrom="0" laneChangedTo="0"/>
        <edge id="128497230#0" sampledSeconds="0.00" departed="0" arrived="0" entered="0" left="0" laneChangedFrom="0" laneChangedTo="0"/>
        <edge id="128497230#1" sampledSeconds="0.00" departed="0" arrived="0" entered="0" left="0" laneChangedFrom="0" laneChangedTo="0"/>
        <edge id="128497230#1-AddedOnRampEdge" sampledSeconds="0.00" departed="0" arrived="0" entered="0" left="0" laneChangedFrom="0" laneChangedTo="0"/>
        <edge id="128497341#0" sampledSeconds="58.49" traveltime="19.13" overlapTraveltime="19.49" density="0.07" occupancy="0.04" waitingTime="0.00" speed="24.37" departed="0" arrived="0" entered="3" left="3" laneChangedFrom="0" laneChangedTo="0"/>
        <edge id="128497436" sampledSeconds="0.00" departed="0" arrived="0" entered="0" left="0" laneChangedFrom="0" laneChangedTo="0"/>
        <edge id="192556113" sampledSeconds="0.00" departed="0" arrived="0" entered="0" left="0" laneChangedFrom="0" laneChangedTo="0"/>
        <edge id="22661029" sampledSeconds="0.00" departed="0" arrived="0" entered="0" left="0" laneChangedFrom="0" laneChangedTo="0"/>
        <edge id="22661030" sampledSeconds="0.00" departed="0" arrived="0" entered="0" left="0" laneChangedFrom="0" laneChangedTo="0"/>
        <edge id="22661031#0" sampledSeconds="0.00" departed="0" arrived="0" entered="0" left="0" laneChangedFrom="0" laneChangedTo="0"/>
        <edge id="22780363" sampledSeconds="34.08" traveltime="16.95" overlapTraveltime="17.21" density="0.06" occupancy="0.03" waitingTime="0.00" speed="19.50" departed="0" arrived="2" entered="2" left="0" laneChangedFrom="0" laneChangedTo="0"/>
        <edge id="22907436" sampledSeconds="5.77" traveltime="1.65" overlapTraveltime="1.92" density="0.09" occupancy="0.04" waitingTime="0.00" speed="21.23" departed="0" arrived="0" entered="3" left="3" laneChangedFrom="0" laneChangedTo="0"/>
        <edge id="22907450" sampledSeconds="0.00" departed="0" arrived="0" entered="0" left="0" laneChangedFrom="0" laneChangedTo="0"/>
        <edge id="22907452" sampledSeconds="0.00" departed="0" arrived="0" entered="0" left="0" laneChangedFrom="0" laneChangedTo="0"/>
        <edge id="22907453" sampledSeconds="0.00" departed="0" arrived="0" entered="0" left="0" laneChangedFrom="0" laneChangedTo="0"/>
        <edge id="23565360#0" sampledSeconds="0.00" departed="0" arrived="0" entered="0" left="0" laneChangedFrom="0" laneChangedTo="0"/>
        <edge id="24644789" sampledSeconds="73.66" traveltime="18.23" overlapTraveltime="18.47" density="0.11" occupancy="0.03" waitingTime="0.00" speed="21.01" departed="0" arrived="4" entered="4" left="0" laneChangedFrom="0" laneChangedTo="0"/>
        <edge id="24644790" sampledSeconds="0.00" departed="0" arrived="0" entered="0" left="0" laneChangedFrom="0" laneChangedTo="0"/>
        <edge id="25508818" sampledSeconds="0.00" departed="0" arrived="0" entered="0" left="0" laneChangedFrom="0" laneChangedTo="0"/>
        <edge id="25750596" sampledSeconds="0.00" departed="0" arrived="0" entered="0" left="0" laneChangedFrom="0" laneChangedTo="0"/>
        <edge id="25750689" sampledSeconds="11.62" traveltime="5.46" overlapTraveltime="5.81" density="0.06" occupancy="0.03" waitingTime="0.00" speed="20.82" departed="0" arrived="0" entered="2" left="2" laneChangedFrom="0" laneChangedTo="0"/>
        <edge id="27352484#0" sampledSeconds="21.89" traveltime="6.94" overlapTraveltime="7.30" density="0.07" occupancy="0.03" waitingTime="0.00" speed="24.05" departed="0" arrived="0" entered="3" left="3" laneChangedFrom="0" laneChangedTo="0"/>
        <edge id="27352485" sampledSeconds="0.00" departed="0" arrived="0" entered="0" left="0" laneChangedFrom="0" laneChangedTo="0"/>
        <edge id="275503308#0" sampledSeconds="0.00" departed="0" arrived="0" entered="0" left="0" laneChangedFrom="0" laneChangedTo="0"/>
        <edge id="275503308#1" sampledSeconds="0.00" departed="0" arrived="0" entered="0" left="0" laneChangedFrom="0" laneChangedTo="0"/>
        <edge id="275503308#1-AddedOnRampEdge" sampledSeconds="0.00" departed="0" arrived="0" entered="0" left="0" laneChangedFrom="0" laneChangedTo="0"/>
        <edge id="275503314" sampledSeconds="0.00" departed="0" arrived="0" entered="0" left="0" laneChangedFrom="0" laneChangedTo="0"/>
        <edge id="275503318#0" sampledSeconds="0.00" departed="0" arrived="0" entered="0" left="0" laneChangedFrom="0" laneChangedTo="0"/>
        <edge id="29334378" sampledSeconds="0.00" departed="0" arrived="0" entered="0" left="0" laneChangedFrom="0" laneChangedTo="0"/>
        <edge id="29334379" sampledSeconds="3.66" traveltime="3.44" overlapTraveltime="3.66" density="0.03" occupancy="0.01" waitingTime="0.00" speed="22.44" departed="0" arrived="0" entered="1" left="1" laneChangedFrom="0" laneChangedTo="0"/>
        <edge id="29334729" sampledSeconds="0.00" departed="0" arrived="0" entered="0" left="0" laneChangedFrom="0" laneChangedTo="0"/>
        <edge id="32015714#0" sampledSeconds="3410.37" traveltime="67.00" overlapTraveltime="67.16" density="0.87" occupancy="0.22" waitingTime="0.00" speed="32.59" departed="94" arrived="0" entered="0" left="93" laneChangedFrom="47" laneChangedTo="47"/>
        <edge id="32015714#0-AddedOffRampEdge" sampledSeconds="277.02" traveltime="2.82" overlapTraveltime="2.98" density="1.67" occupancy="0.26" waitingTime="0.00" speed="32.56" departed="0" arrived="0" entered="93" left="93" laneChangedFrom="1" laneChangedTo="1"/>
        <edge id="32015714#1" sampledSeconds="1027.99" traveltime="11.13" overlapTraveltime="11.31" density="1.58" occupancy="0.39" waitingTime="0.00" speed="32.31" departed="0" arrived="0" entered="91" left="90" laneChangedFrom="8" laneChangedTo="8"/>
        <edge id="321265666#1" sampledSeconds="294.99" traveltime="4.22" overlapTraveltime="4.40" density="1.42" occupancy="0.23" waitingTime="0.00" speed="27.42" departed="0" arrived="0" entered="67" left="67" laneChangedFrom="1" laneChangedTo="1"/>
        <edge id="321265666#2" sampledSeconds="232.57" traveltime="3.29" overlapTraveltime="3.47" density="1.43" occupancy="0.23" waitingTime="0.00" speed="27.43" departed="0" arrived="0" entered="67" left="67" laneChangedFrom="1" laneChangedTo="1"/>
        <edge id="321265666#2-AddedOffRampEdge" sampledSeconds="237.00" traveltime="3.35" overlapTraveltime="3.54" density="1.43" occupancy="0.17" waitingTime="0.00" speed="27.42" departed="0" arrived="0" entered="67" left="67" laneChangedFrom="1" laneChangedTo="1"/>
        <edge id="321265666#2-AddedOnRampEdge" sampledSeconds="237.52" traveltime="3.36" overlapTraveltime="3.55" density="1.43" occupancy="0.17" waitingTime="0.00" speed="27.42" departed="0" arrived="0" entered="67" left="67" laneChangedFrom="1" laneChangedTo="1"/>
        <edge id="321279636#1" sampledSeconds="78.42" traveltime="0.99" overlapTraveltime="1.17" density="1.61" occupancy="0.23" waitingTime="0.00" speed="27.43" departed="0" arrived="0" entered="67" left="67" laneChangedFrom="1" laneChangedTo="1"/>
        <edge id="321279636#2" sampledSeconds="903.25" traveltime="13.30" overlapTraveltime="13.48" density="1.38" occupancy="0.23" waitingTime="0.00" speed="27.44" departed="0" arrived="0" entered="67" left="67" laneChangedFrom="2" laneChangedTo="2"/>
        <edge id="321279636#2-AddedOffRampEdge" sampledSeconds="236.06" traveltime="3.34" overlapTraveltime="3.52" density="1.43" occupancy="0.17" waitingTime="0.00" speed="27.42" departed="0" arrived="0" entered="67" left="67" laneChangedFrom="1" laneChangedTo="1"/>
        <edge id="321279636#2-AddedOnRampEdge" sampledSeconds="236.40" traveltime="3.35" overlapTraveltime="3.53" density="1.43" occupancy="0.17" waitingTime="0.00" speed="27.43" departed="0" arrived="0" entered="67" left="67" laneChangedFrom="1" laneChangedTo="1"/>
        <edge id="321279636#3" sampledSeconds="103.88" traveltime="1.37" overlapTraveltime="1.55" density="1.54" occupancy="0.23" waitingTime="0.00" speed="27.43" departed="0" arrived="0" entered="67" left="67" laneChangedFrom="0" laneChangedTo="0"/>
        <edge id="321279636#4" sampledSeconds="1477.50" traveltime="22.05" overlapTraveltime="22.23" density="1.36" occupancy="0.22" waitingTime="0.00" speed="27.45" departed="0" arrived="0" entered="67" left="66" laneChangedFrom="6" laneChangedTo="6"/>
        <edge id="321279636#4-AddedOffRampEdge" sampledSeconds="232.83" traveltime="3.35" overlapTraveltime="3.53" density="1.41" occupancy="0.17" waitingTime="0.00" speed="27.47" departed="0" arrived="0" entered="66" left="66" laneChangedFrom="3" laneChangedTo="3"/>
        <edge id="321279636#4-AddedOnRampEdge" sampledSeconds="236.67" traveltime="3.35" overlapTraveltime="3.53" density="1.43" occupancy="0.17" waitingTime="0.00" speed="27.41" departed="0" arrived="0" entered="67" left="67" laneChangedFrom="3" laneChangedTo="3"/>
        <edge id="321279636#5" sampledSeconds="3567.39" traveltime="55.03" overlapTraveltime="55.22" density="1.31" occupancy="0.22" waitingTime="0.00" speed="27.51" departed="0" arrived="0" entered="66" left="63" laneChangedFrom="12" laneChangedTo="12"/>
        <edge id="325686453#1" sampledSeconds="8198.73" traveltime="34.30" overlapTraveltime="34.48" density="4.88" occupancy="0.81" waitingTime="0.00" speed="27.20" departed="0" arrived="0" entered="239" left="235" laneChangedFrom="74" laneChangedTo="74"/>
        <edge id="325686453#1-AddedOffRampEdge" sampledSeconds="839.16" traveltime="3.39" overlapTraveltime="3.57" density="5.07" occupancy="0.60" waitingTime="0.00" speed="27.17" departed="0" arrived="0" entered="235" left="235" laneChangedFrom="6" laneChangedTo="6"/>
        <edge id="325686453#1-AddedOnRampEdge" sampledSeconds="863.14" traveltime="3.43" overlapTraveltime="3.61" density="5.14" occupancy="0.61" waitingTime="0.00" speed="27.21" departed="0" arrived="0" entered="239" left="239" laneChangedFrom="5" laneChangedTo="5"/>
        <edge id="325686453#4" sampledSeconds="1886.43" traveltime="7.91" overlapTraveltime="8.10" density="4.88" occupancy="0.80" waitingTime="0.00" speed="27.16" departed="0" arrived="0" entered="233" left="232" laneChangedFrom="25" laneChangedTo="25"/>
        <edge id="325686453#5" sampledSeconds="900.17" traveltime="3.70" overlapTraveltime="3.88" density="4.98" occupancy="0.79" waitingTime="0.00" speed="27.18" departed="0" arrived="0" entered="232" left="232" laneChangedFrom="8" laneChangedTo="8"/>
        <edge id="325686453#5-AddedOffRampEdge" sampledSeconds="828.78" traveltime="3.39" overlapTraveltime="3.57" density="5.01" occupancy="0.60" waitingTime="0.00" speed="27.13" departed="0" arrived="0" entered="232" left="232" laneChangedFrom="11" laneChangedTo="11"/>
        <edge id="325686453#5-AddedOnRampEdge" sampledSeconds="828.27" traveltime="3.39" overlapTraveltime="3.57" density="5.00" occupancy="0.59" waitingTime="0.00" speed="27.18" departed="0" arrived="0" entered="232" left="232" laneChangedFrom="8" laneChangedTo="8"/>
        <edge id="325686453#6" sampledSeconds="1754.34" traveltime="7.49" overlapTraveltime="7.67" density="4.79" occupancy="0.78" waitingTime="0.00" speed="27.17" departed="0" arrived="0" entered="229" left="228" laneChangedFrom="13" laneChangedTo="13"/>
        <edge id="325686453#6-AddedOffRampEdge" sampledSeconds="815.29" traveltime="3.39" overlapTraveltime="3.58" density="4.92" occupancy="0.59" waitingTime="0.00" speed="27.13" departed="0" arrived="0" entered="228" left="228" laneChangedFrom="8" laneChangedTo="8"/>
        <edge id="325686453#7" sampledSeconds="3994.80" traveltime="17.34" overlapTraveltime="17.53" density="4.71" occupancy="0.78" waitingTime="0.00" speed="27.14" departed="0" arrived="0" entered="228" left="226" laneChangedFrom="34" laneChangedTo="34"/>
        <edge id="325686453#8" sampledSeconds="15968.97" traveltime="72.20" overlapTraveltime="72.38" density="4.53" occupancy="0.76" waitingTime="0.00" speed="27.13" departed="0" arrived="0" entered="225" left="216" laneChangedFrom="131" laneChangedTo="131"/>
        <edge id="325686453#8-AddedOffRampEdge" sampledSeconds="771.36" traveltime="3.39" overlapTraveltime="3.58" density="4.66" occupancy="0.55" waitingTime="0.00" speed="27.10" departed="0" arrived="0" entered="216" left="215" laneChangedFrom="5" laneChangedTo="5"/>
        <edge id="325686453#8-AddedOnRampEdge" sampledSeconds="807.97" traveltime="3.40" overlapTraveltime="3.59" density="4.86" occupancy="0.58" waitingTime="0.00" speed="27.13" departed="0" arrived="0" entered="226" left="225" laneChangedFrom="4" laneChangedTo="4"/>
        <edge id="327268097#1" sampledSeconds="2328.22" traveltime="36.86" overlapTraveltime="37.04" density="1.28" occupancy="0.21" waitingTime="0.00" speed="27.47" departed="0" arrived="62" entered="63" left="0" laneChangedFrom="5" laneChangedTo="5"/>
        <edge id="327268097#1-AddedOnRampEdge" sampledSeconds="223.17" traveltime="3.36" overlapTraveltime="3.54" density="1.34" occupancy="0.16" waitingTime="0.00" speed="27.48" departed="0" arrived="0" entered="63" left="63" laneChangedFrom="0" laneChangedTo="0"/>
        <edge id="38245579#0" sampledSeconds="1429.89" traveltime="8.87" overlapTraveltime="9.02" density="2.81" occupancy="0.69" waitingTime="0.00" speed="31.90" departed="0" arrived="0" entered="160" left="158" laneChangedFrom="11" laneChangedTo="11"/>
        <edge id="38245579#1" sampledSeconds="10652.57" traveltime="68.95" overlapTraveltime="69.11" density="2.63" occupancy="0.66" waitingTime="0.00" speed="32.67" departed="0" arrived="150" entered="158" left="0" laneChangedFrom="58" laneChangedTo="58"/>
        <edge id="38245579#1-AddedOnRampEdge" sampledSeconds="468.13" traveltime="2.81" overlapTraveltime="2.96" density="2.82" occupancy="0.45" waitingTime="0.00" speed="32.81" departed="0" arrived="0" entered="158" left="158" laneChangedFrom="2" laneChangedTo="2"/>
        <edge id="398588970" sampledSeconds="0.00" departed="0" arrived="0" entered="0" left="0" laneChangedFrom="0" laneChangedTo="0"/>
        <edge id="40388800" sampledSeconds="1059.72" traveltime="11.59" overlapTraveltime="11.77" density="1.87" occupancy="0.46" waitingTime="0.00" speed="27.21" departed="0" arrived="0" entered="90" left="90" laneChangedFrom="6" laneChangedTo="6"/>
        <edge id="4258460" sampledSeconds="4690.23" traveltime="28.93" overlapTraveltime="29.12" density="3.30" occupancy="0.82" waitingTime="0.00" speed="27.29" departed="0" arrived="0" entered="162" left="160" laneChangedFrom="24" laneChangedTo="24"/>
        <edge id="4258491" sampledSeconds="9.91" traveltime="4.57" overlapTraveltime="4.95" density="0.06" occupancy="0.03" waitingTime="0.00" speed="19.29" departed="0" arrived="0" entered="2" left="2" laneChangedFrom="0" laneChangedTo="0"/>
        <edge id="42872148#0" sampledSeconds="0.00" departed="0" arrived="0" entered="0" left="0" laneChangedFrom="0" laneChangedTo="0"/>
        <edge id="42872148#1" sampledSeconds="0.00" departed="0" arrived="0" entered="0" left="0" laneChangedFrom="0" laneChangedTo="0"/>
        <edge id="42872148#1-AddedOnRampEdge" sampledSeconds="0.00" departed="0" arrived="0" entered="0" left="0" laneChangedFrom="0" laneChangedTo="0"/>