<?xml version="1.0" encoding="UTF-8"?>

<!-- generated on 12/11/19 15:30:04 by Eclipse SUMO Version 1.3.1
<configuration xmlns:xsi="http://www.w3.org/2001/XMLSchema-instance" xsi:noNamespaceSchemaLocation="http://sumo.dlr.de/xsd/sumoConfiguration.xsd">

    <input>
        <net-file value="N7_network.net.xml"/>
        <additional-files value="vtypes.add.xml,N7_routes.rou.xml,N7_emitters.emi.xml,N7_detectors.poi.xml,outputs.add.xml"/>
    </input>

    <time>
        <begin value="0"/>
        <end value="86400"/>
        <step-length value="0.5"/>
    </time>

    <processing>
        <collision.mingap-factor value="0"/>
        <emergencydecel.warning-threshold value="5"/>
    </processing>

    <report>
        <log value="output/log.xml"/>
    </report>

    <gui_only>
        <tracker-interval value="0.5"/>
    </gui_only>

</configuration>
-->

<meandata xmlns:xsi="http://www.w3.org/2001/XMLSchema-instance" xsi:noNamespaceSchemaLocation="http://sumo.dlr.de/xsd/meandata_file.xsd">
    <interval begin="0.00" end="1800.00" id="1">
        <edge id="-123961786" sampledSeconds="0.00" departed="0" arrived="0" entered="0" left="0" laneChangedFrom="0" laneChangedTo="0"/>
        <edge id="-123961980" sampledSeconds="19.61" traveltime="6.43" overlapTraveltime="6.72" density="0.10" occupancy="0.05" waitingTime="0.00" speed="17.12" departed="0" arrived="3" entered="3" left="0" laneChangedFrom="0" laneChangedTo="0"/>
        <edge id="-128052719" sampledSeconds="6.92" traveltime="6.90" overlapTraveltime="7.12" density="0.02" occupancy="0.01" waitingTime="0.00" speed="22.49" departed="0" arrived="1" entered="1" left="0" laneChangedFrom="0" laneChangedTo="0"/>
        <edge id="-128497195" sampledSeconds="0.00" departed="0" arrived="0" entered="0" left="0" laneChangedFrom="0" laneChangedTo="0"/>
        <edge id="-22661031#2" sampledSeconds="0.00" departed="0" arrived="0" entered="0" left="0" laneChangedFrom="0" laneChangedTo="0"/>
        <edge id="-22907450" sampledSeconds="0.00" departed="0" arrived="0" entered="0" left="0" laneChangedFrom="0" laneChangedTo="0"/>
        <edge id="-275503318#2" sampledSeconds="16.52" traveltime="5.34" overlapTraveltime="5.73" density="0.14" occupancy="0.07" waitingTime="0.00" speed="12.14" departed="0" arrived="3" entered="3" left="0" laneChangedFrom="0" laneChangedTo="0"/>
        <edge id="-8296126#3" sampledSeconds="11.48" traveltime="5.41" overlapTraveltime="5.77" density="0.09" occupancy="0.04" waitingTime="0.00" speed="13.82" departed="0" arrived="2" entered="2" left="0" laneChangedFrom="0" laneChangedTo="0"/>
        <edge id="-86382092" sampledSeconds="0.00" departed="0" arrived="0" entered="0" left="0" laneChangedFrom="0" laneChangedTo="0"/>
        <edge id="-86382126" sampledSeconds="0.00" departed="0" arrived="0" entered="0" left="0" laneChangedFrom="0" laneChangedTo="0"/>
        <edge id="123959660" sampledSeconds="0.00" departed="0" arrived="0" entered="0" left="0" laneChangedFrom="0" laneChangedTo="0"/>
        <edge id="123959844" sampledSeconds="0.00" departed="0" arrived="0" entered="0" left="0" laneChangedFrom="0" laneChangedTo="0"/>
        <edge id="123960179" sampledSeconds="59.66" traveltime="14.62" overlapTraveltime="14.92" density="0.08" occupancy="0.04" waitingTime="0.00" speed="27.01" departed="0" arrived="0" entered="4" left="4" laneChangedFrom="0" laneChangedTo="0"/>
        <edge id="123960426" sampledSeconds="0.00" departed="0" arrived="0" entered="0" left="0" laneChangedFrom="0" laneChangedTo="0"/>
        <edge id="123960478" sampledSeconds="0.00" departed="0" arrived="0" entered="0" left="0" laneChangedFrom="0" laneChangedTo="0"/>
        <edge id="123960508" sampledSeconds="0.00" departed="0" arrived="0" entered="0" left="0" laneChangedFrom="0" laneChangedTo="0"/>
        <edge id="123961229#0" sampledSeconds="436.72" traveltime="6.06" overlapTraveltime="6.24" density="1.45" occupancy="0.23" waitingTime="0.00" speed="27.65" departed="0" arrived="0" entered="70" left="70" laneChangedFrom="2" laneChangedTo="2"/>
        <edge id="123961229#1" sampledSeconds="3061.89" traveltime="45.11" overlapTraveltime="45.29" density="1.36" occupancy="0.23" waitingTime="0.00" speed="27.65" departed="0" arrived="0" entered="69" left="67" laneChangedFrom="11" laneChangedTo="11"/>
        <edge id="123961229#1-AddedOffRampEdge" sampledSeconds="235.06" traveltime="3.33" overlapTraveltime="3.51" density="1.42" occupancy="0.17" waitingTime="0.00" speed="27.67" departed="0" arrived="0" entered="67" left="67" laneChangedFrom="0" laneChangedTo="0"/>
        <edge id="123961229#1-AddedOnRampEdge" sampledSeconds="243.14" traveltime="3.33" overlapTraveltime="3.51" density="1.47" occupancy="0.17" waitingTime="0.00" speed="27.63" departed="0" arrived="0" entered="70" left="69" laneChangedFrom="0" laneChangedTo="0"/>
        <edge id="123961236#0" sampledSeconds="1484.31" traveltime="6.82" overlapTraveltime="7.00" density="4.45" occupancy="0.72" waitingTime="0.00" speed="27.19" departed="0" arrived="0" entered="212" left="212" laneChangedFrom="4" laneChangedTo="4"/>
        <edge id="123961236#1" sampledSeconds="15058.47" traveltime="72.47" overlapTraveltime="72.65" density="4.25" occupancy="0.71" waitingTime="0.00" speed="27.18" departed="0" arrived="0" entered="212" left="200" laneChangedFrom="181" laneChangedTo="181"/>
        <edge id="123961236#1-AddedOffRampEdge" sampledSeconds="714.38" traveltime="3.39" overlapTraveltime="3.57" density="4.31" occupancy="0.51" waitingTime="0.00" speed="27.17" departed="0" arrived="0" entered="200" left="200" laneChangedFrom="6" laneChangedTo="6"/>
        <edge id="123961236#1-AddedOnRampEdge" sampledSeconds="757.07" traveltime="3.39" overlapTraveltime="3.57" density="4.57" occupancy="0.54" waitingTime="0.00" speed="27.19" departed="0" arrived="0" entered="212" left="212" laneChangedFrom="8" laneChangedTo="8"/>
        <edge id="123961236#12" sampledSeconds="6521.94" traveltime="38.12" overlapTraveltime="38.30" density="3.49" occupancy="0.58" waitingTime="0.00" speed="27.27" departed="0" arrived="0" entered="173" left="167" laneChangedFrom="56" laneChangedTo="56"/>
        <edge id="123961236#13" sampledSeconds="1914.20" traveltime="11.35" overlapTraveltime="11.53" density="3.44" occupancy="0.57" waitingTime="0.00" speed="27.24" departed="0" arrived="0" entered="166" left="166" laneChangedFrom="66" laneChangedTo="66"/>
        <edge id="123961236#13-AddedOffRampEdge" sampledSeconds="590.47" traveltime="3.37" overlapTraveltime="3.56" density="3.56" occupancy="0.42" waitingTime="0.00" speed="27.28" departed="0" arrived="0" entered="166" left="166" laneChangedFrom="6" laneChangedTo="6"/>
        <edge id="123961236#13-AddedOnRampEdge" sampledSeconds="591.94" traveltime="3.37" overlapTraveltime="3.55" density="3.57" occupancy="0.42" waitingTime="0.00" speed="27.30" departed="0" arrived="0" entered="167" left="166" laneChangedFrom="8" laneChangedTo="8"/>
        <edge id="123961236#6" sampledSeconds="1519.94" traveltime="7.52" overlapTraveltime="7.70" density="4.13" occupancy="0.67" waitingTime="0.00" speed="27.18" departed="0" arrived="0" entered="198" left="197" laneChangedFrom="9" laneChangedTo="9"/>
        <edge id="123961236#7" sampledSeconds="3824.16" traveltime="19.27" overlapTraveltime="19.45" density="4.05" occupancy="0.67" waitingTime="0.00" speed="27.20" departed="0" arrived="0" entered="197" left="196" laneChangedFrom="30" laneChangedTo="30"/>
        <edge id="123961236#7-AddedOffRampEdge" sampledSeconds="695.49" traveltime="3.37" overlapTraveltime="3.56" density="4.21" occupancy="0.50" waitingTime="0.00" speed="27.23" departed="0" arrived="0" entered="196" left="195" laneChangedFrom="7" laneChangedTo="7"/>
        <edge id="123961236#7-AddedOnRampEdge" sampledSeconds="702.94" traveltime="3.38" overlapTraveltime="3.57" density="4.24" occupancy="0.50" waitingTime="0.00" speed="27.22" departed="0" arrived="0" entered="197" left="197" laneChangedFrom="4" laneChangedTo="4"/>
        <edge id="123961236#8" sampledSeconds="8126.51" traveltime="42.83" overlapTraveltime="43.02" density="3.87" occupancy="0.64" waitingTime="0.00" speed="27.22" departed="0" arrived="0" entered="192" left="186" laneChangedFrom="76" laneChangedTo="76"/>
        <edge id="123961236#9" sampledSeconds="11007.27" traveltime="60.15" overlapTraveltime="60.33" density="3.73" occupancy="0.62" waitingTime="0.00" speed="27.25" departed="0" arrived="0" entered="186" left="178" laneChangedFrom="109" laneChangedTo="109"/>
        <edge id="123961236#9-AddedOffRampEdge" sampledSeconds="698.96" traveltime="3.75" overlapTraveltime="3.94" density="3.79" occupancy="0.45" waitingTime="0.00" speed="27.28" departed="0" arrived="0" entered="178" left="177" laneChangedFrom="60" laneChangedTo="60"/>
        <edge id="123961236#9-AddedOnRampEdge" sampledSeconds="662.41" traveltime="3.38" overlapTraveltime="3.56" density="4.00" occupancy="0.48" waitingTime="0.00" speed="27.23" departed="0" arrived="0" entered="186" left="186" laneChangedFrom="8" laneChangedTo="8"/>
        <edge id="123961786" sampledSeconds="0.00" departed="0" arrived="0" entered="0" left="0" laneChangedFrom="0" laneChangedTo="0"/>
        <edge id="123961980" sampledSeconds="0.00" departed="0" arrived="0" entered="0" left="0" laneChangedFrom="0" laneChangedTo="0"/>
        <edge id="123962072" sampledSeconds="4872.22" traveltime="20.04" overlapTraveltime="20.22" density="4.94" occupancy="0.82" waitingTime="0.00" speed="27.37" departed="0" arrived="0" entered="243" left="240" laneChangedFrom="80" laneChangedTo="80"/>
        <edge id="123962130-AddedOffRampEdge" sampledSeconds="864.01" traveltime="3.36" overlapTraveltime="3.54" density="5.22" occupancy="0.62" waitingTime="0.00" speed="27.39" departed="0" arrived="0" entered="244" left="244" laneChangedFrom="23" laneChangedTo="23"/>
        <edge id="123962130.2472" sampledSeconds="3754.99" traveltime="29.92" overlapTraveltime="30.10" density="2.55" occupancy="0.42" waitingTime="0.00" speed="27.34" departed="245" arrived="0" entered="0" left="244" laneChangedFrom="151" laneChangedTo="151"/>
        <edge id="123965879#0" sampledSeconds="1949.12" traveltime="24.22" overlapTraveltime="24.40" density="1.62" occupancy="0.27" waitingTime="0.00" speed="27.59" departed="0" arrived="0" entered="80" left="79" laneChangedFrom="9" laneChangedTo="9"/>
        <edge id="123965879#1" sampledSeconds="4073.41" traveltime="53.28" overlapTraveltime="53.46" density="1.54" occupancy="0.26" waitingTime="0.00" speed="27.59" departed="0" arrived="0" entered="79" left="74" laneChangedFrom="10" laneChangedTo="10"/>
        <edge id="123965879#1-AddedOffRampEdge" sampledSeconds="260.14" traveltime="3.33" overlapTraveltime="3.52" density="1.57" occupancy="0.19" waitingTime="0.00" speed="27.61" departed="0" arrived="0" entered="74" left="74" laneChangedFrom="1" laneChangedTo="1"/>
        <edge id="123965879#1-AddedOnRampEdge" sampledSeconds="277.58" traveltime="3.33" overlapTraveltime="3.51" density="1.68" occupancy="0.20" waitingTime="0.00" speed="27.54" departed="0" arrived="0" entered="79" left="79" laneChangedFrom="2" laneChangedTo="2"/>
        <edge id="123965879#3" sampledSeconds="438.84" traveltime="5.88" overlapTraveltime="6.06" density="1.50" occupancy="0.24" waitingTime="0.00" speed="27.65" departed="0" arrived="0" entered="73" left="72" laneChangedFrom="0" laneChangedTo="0"/>
        <edge id="123965879#4" sampledSeconds="4522.68" traveltime="62.96" overlapTraveltime="63.14" density="1.44" occupancy="0.24" waitingTime="0.00" speed="27.68" departed="0" arrived="0" entered="72" left="70" laneChangedFrom="8" laneChangedTo="8"/>
        <edge id="123965879#4-AddedOffRampEdge" sampledSeconds="246.21" traveltime="3.34" overlapTraveltime="3.52" density="1.48" occupancy="0.18" waitingTime="0.00" speed="27.62" departed="0" arrived="0" entered="70" left="70" laneChangedFrom="3" laneChangedTo="3"/>
        <edge id="123965879#4-AddedOnRampEdge" sampledSeconds="252.45" traveltime="3.33" overlapTraveltime="3.51" density="1.52" occupancy="0.18" waitingTime="0.00" speed="27.67" departed="0" arrived="0" entered="72" left="72" laneChangedFrom="2" laneChangedTo="2"/>
        <edge id="123966730" sampledSeconds="80.39" traveltime="13.09" overlapTraveltime="13.40" density="0.13" occupancy="0.06" waitingTime="0.00" speed="26.16" departed="0" arrived="0" entered="6" left="6" laneChangedFrom="0" laneChangedTo="0"/>
        <edge id="123967087" sampledSeconds="0.00" departed="0" arrived="0" entered="0" left="0" laneChangedFrom="0" laneChangedTo="0"/>
        <edge id="123967236#0" sampledSeconds="2952.30" traveltime="33.13" overlapTraveltime="33.31" density="1.79" occupancy="0.30" waitingTime="0.00" speed="27.61" departed="0" arrived="0" entered="89" left="88" laneChangedFrom="10" laneChangedTo="10"/>
        <edge id="123967236#1" sampledSeconds="5480.88" traveltime="63.40" overlapTraveltime="63.58" density="1.74" occupancy="0.29" waitingTime="0.00" speed="27.59" departed="0" arrived="0" entered="88" left="86" laneChangedFrom="16" laneChangedTo="16"/>
        <edge id="123967236#1-AddedOffRampEdge" sampledSeconds="302.45" traveltime="3.34" overlapTraveltime="3.52" density="1.83" occupancy="0.22" waitingTime="0.00" speed="27.58" departed="0" arrived="0" entered="86" left="86" laneChangedFrom="0" laneChangedTo="0"/>
        <edge id="123967236#1-AddedOnRampEdge" sampledSeconds="308.91" traveltime="3.33" overlapTraveltime="3.51" density="1.87" occupancy="0.22" waitingTime="0.00" speed="27.63" departed="0" arrived="0" entered="88" left="88" laneChangedFrom="1" laneChangedTo="1"/>
        <edge id="123969747" sampledSeconds="2565.83" traveltime="28.56" overlapTraveltime="28.74" density="1.81" occupancy="0.30" waitingTime="0.00" speed="27.62" departed="0" arrived="0" entered="90" left="89" laneChangedFrom="84" laneChangedTo="84"/>
        <edge id="123969747-AddedOffRampEdge" sampledSeconds="325.44" traveltime="3.48" overlapTraveltime="3.66" density="1.88" occupancy="0.30" waitingTime="0.00" speed="27.62" departed="0" arrived="0" entered="89" left="89" laneChangedFrom="1" laneChangedTo="1"/>
        <edge id="123969747-AddedOnRampEdge" sampledSeconds="296.81" traveltime="3.12" overlapTraveltime="3.30" density="1.91" occupancy="0.30" waitingTime="0.00" speed="27.63" departed="0" arrived="0" entered="90" left="90" laneChangedFrom="0" laneChangedTo="0"/>
        <edge id="128052719" sampledSeconds="0.00" departed="0" arrived="0" entered="0" left="0" laneChangedFrom="0" laneChangedTo="0"/>
        <edge id="128497195" sampledSeconds="9.72" traveltime="4.64" overlapTraveltime="4.86" density="0.07" occupancy="0.03" waitingTime="0.00" speed="17.91" departed="0" arrived="2" entered="2" left="0" laneChangedFrom="0" laneChangedTo="0"/>
        <edge id="128497230#0" sampledSeconds="0.00" departed="0" arrived="0" entered="0" left="0" laneChangedFrom="0" laneChangedTo="0"/>
        <edge id="128497230#1" sampledSeconds="0.00" departed="0" arrived="0" entered="0" left="0" laneChangedFrom="0" laneChangedTo="0"/>
        <edge id="128497230#1-AddedOnRampEdge" sampledSeconds="0.00" departed="0" arrived="0" entered="0" left="0" laneChangedFrom="0" laneChangedTo="0"/>
        <edge id="128497341#0" sampledSeconds="54.87" traveltime="17.94" overlapTraveltime="18.29" density="0.06" occupancy="0.04" waitingTime="0.00" speed="25.98" departed="0" arrived="0" entered="3" left="3" laneChangedFrom="0" laneChangedTo="0"/>
        <edge id="128497436" sampledSeconds="0.00" departed="0" arrived="0" entered="0" left="0" laneChangedFrom="0" laneChangedTo="0"/>
        <edge id="192556113" sampledSeconds="0.00" departed="0" arrived="0" entered="0" left="0" laneChangedFrom="0" laneChangedTo="0"/>
        <edge id="22661029" sampledSeconds="0.00" departed="0" arrived="0" entered="0" left="0" laneChangedFrom="0" laneChangedTo="0"/>
        <edge id="22661030" sampledSeconds="0.00" departed="0" arrived="0" entered="0" left="0" laneChangedFrom="0" laneChangedTo="0"/>
        <edge id="22661031#0" sampledSeconds="0.00" departed="0" arrived="0" entered="0" left="0" laneChangedFrom="0" laneChangedTo="0"/>
        <edge id="22780363" sampledSeconds="33.01" traveltime="16.32" overlapTraveltime="16.56" density="0.06" occupancy="0.03" waitingTime="0.00" speed="20.26" departed="0" arrived="2" entered="2" left="0" laneChangedFrom="0" laneChangedTo="0"/>
        <edge id="22907436" sampledSeconds="5.65" traveltime="1.62" overlapTraveltime="1.88" density="0.09" occupancy="0.04" waitingTime="0.00" speed="21.71" departed="0" arrived="0" entered="3" left="3" laneChangedFrom="0" laneChangedTo="0"/>
        <edge id="22907450" sampledSeconds="0.00" departed="0" arrived="0" entered="0" left="0" laneChangedFrom="0" laneChangedTo="0"/>
        <edge id="22907452" sampledSeconds="0.00" departed="0" arrived="0" entered="0" left="0" laneChangedFrom="0" laneChangedTo="0"/>
        <edge id="22907453" sampledSeconds="0.00" departed="0" arrived="0" entered="0" left="0" laneChangedFrom="0" laneChangedTo="0"/>
        <edge id="23565360#0" sampledSeconds="0.00" departed="0" arrived="0" entered="0" left="0" laneChangedFrom="0" laneChangedTo="0"/>
        <edge id="24644789" sampledSeconds="72.58" traveltime="17.91" overlapTraveltime="18.15" density="0.11" occupancy="0.03" waitingTime="0.00" speed="21.38" departed="0" arrived="4" entered="4" left="0" laneChangedFrom="0" laneChangedTo="0"/>
        <edge id="24644790" sampledSeconds="0.00" departed="0" arrived="0" entered="0" left="0" laneChangedFrom="0" laneChangedTo="0"/>
        <edge id="25508818" sampledSeconds="0.00" departed="0" arrived="0" entered="0" left="0" laneChangedFrom="0" laneChangedTo="0"/>
        <edge id="25750596" sampledSeconds="0.00" departed="0" arrived="0" entered="0" left="0" laneChangedFrom="0" laneChangedTo="0"/>
        <edge id="25750689" sampledSeconds="11.47" traveltime="5.40" overlapTraveltime="5.74" density="0.05" occupancy="0.03" waitingTime="0.00" speed="21.09" departed="0" arrived="0" entered="2" left="2" laneChangedFrom="0" laneChangedTo="0"/>
        <edge id="27352484#0" sampledSeconds="21.60" traveltime="6.85" overlapTraveltime="7.20" density="0.07" occupancy="0.03" waitingTime="0.00" speed="24.37" departed="0" arrived="0" entered="3" left="3" laneChangedFrom="0" laneChangedTo="0"/>
        <edge id="27352485" sampledSeconds="0.00" departed="0" arrived="0" entered="0" left="0" laneChangedFrom="0" laneChangedTo="0"/>
        <edge id="275503308#0" sampledSeconds="0.00" departed="0" arrived="0" entered="0" left="0" laneChangedFrom="0" laneChangedTo="0"/>
        <edge id="275503308#1" sampledSeconds="0.00" departed="0" arrived="0" entered="0" left="0" laneChangedFrom="0" laneChangedTo="0"/>
        <edge id="275503308#1-AddedOnRampEdge" sampledSeconds="0.00" departed="0" arrived="0" entered="0" left="0" laneChangedFrom="0" laneChangedTo="0"/>
        <edge id="275503314" sampledSeconds="0.00" departed="0" arrived="0" entered="0" left="0" laneChangedFrom="0" laneChangedTo="0"/>
        <edge id="275503318#0" sampledSeconds="0.00" departed="0" arrived="0" entered="0" left="0" laneChangedFrom="0" laneChangedTo="0"/>
        <edge id="29334378" sampledSeconds="0.00" departed="0" arrived="0" entered="0" left="0" laneChangedFrom="0" laneChangedTo="0"/>
        <edge id="29334379" sampledSeconds="3.64" traveltime="3.42" overlapTraveltime="3.64" density="0.03" occupancy="0.01" waitingTime="0.00" speed="22.61" departed="0" arrived="0" entered="1" left="1" laneChangedFrom="0" laneChangedTo="0"/>
        <edge id="29334729" sampledSeconds="0.00" departed="0" arrived="0" entered="0" left="0" laneChangedFrom="0" laneChangedTo="0"/>
        <edge id="32015714#0" sampledSeconds="3303.24" traveltime="66.17" overlapTraveltime="66.32" density="0.84" occupancy="0.21" waitingTime="0.00" speed="33.00" departed="94" arrived="0" entered="0" left="93" laneChangedFrom="60" laneChangedTo="60"/>
        <edge id="32015714#0-AddedOffRampEdge" sampledSeconds="272.95" traveltime="2.78" overlapTraveltime="2.93" density="1.65" occupancy="0.26" waitingTime="0.00" speed="33.05" departed="0" arrived="0" entered="93" left="93" laneChangedFrom="2" laneChangedTo="2"/>
        <edge id="32015714#1" sampledSeconds="1014.98" traveltime="10.97" overlapTraveltime="11.15" density="1.56" occupancy="0.39" waitingTime="0.00" speed="32.77" departed="0" arrived="0" entered="91" left="91" laneChangedFrom="10" laneChangedTo="10"/>
        <edge id="321265666#1" sampledSeconds="292.37" traveltime="4.18" overlapTraveltime="4.36" density="1.40" occupancy="0.22" waitingTime="0.00" speed="27.67" departed="0" arrived="0" entered="67" left="67" laneChangedFrom="1" laneChangedTo="1"/>
        <edge id="321265666#2" sampledSeconds="230.64" traveltime="3.26" overlapTraveltime="3.44" density="1.42" occupancy="0.22" waitingTime="0.00" speed="27.66" departed="0" arrived="0" entered="67" left="67" laneChangedFrom="0" laneChangedTo="0"/>
        <edge id="321265666#2-AddedOffRampEdge" sampledSeconds="235.01" traveltime="3.33" overlapTraveltime="3.51" density="1.42" occupancy="0.17" waitingTime="0.00" speed="27.65" departed="0" arrived="0" entered="67" left="67" laneChangedFrom="0" laneChangedTo="0"/>
        <edge id="321265666#2-AddedOnRampEdge" sampledSeconds="235.45" traveltime="3.33" overlapTraveltime="3.51" density="1.42" occupancy="0.17" waitingTime="0.00" speed="27.66" departed="0" arrived="0" entered="67" left="67" laneChangedFrom="0" laneChangedTo="0"/>
        <edge id="321279636#1" sampledSeconds="77.82" traveltime="0.98" overlapTraveltime="1.16" density="1.59" occupancy="0.22" waitingTime="0.00" speed="27.65" departed="0" arrived="0" entered="67" left="67" laneChangedFrom="0" laneChangedTo="0"/>
        <edge id="321279636#2" sampledSeconds="896.19" traveltime="13.20" overlapTraveltime="13.38" density="1.36" occupancy="0.22" waitingTime="0.00" speed="27.65" departed="0" arrived="0" entered="67" left="67" laneChangedFrom="2" laneChangedTo="2"/>
        <edge id="321279636#2-AddedOffRampEdge" sampledSeconds="234.12" traveltime="3.31" overlapTraveltime="3.49" density="1.42" occupancy="0.17" waitingTime="0.00" speed="27.65" departed="0" arrived="0" entered="67" left="67" laneChangedFrom="1" laneChangedTo="1"/>
        <edge id="321279636#2-AddedOnRampEdge" sampledSeconds="234.50" traveltime="3.32" overlapTraveltime="3.50" density="1.42" occupancy="0.17" waitingTime="0.00" speed="27.65" departed="0" arrived="0" entered="67" left="67" laneChangedFrom="0" laneChangedTo="0"/>
        <edge id="321279636#3" sampledSeconds="103.02" traveltime="1.36" overlapTraveltime="1.54" density="1.52" occupancy="0.22" waitingTime="0.00" speed="27.66" departed="0" arrived="0" entered="67" left="67" laneChangedFrom="0" laneChangedTo="0"/>
        <edge id="321279636#4" sampledSeconds="1478.81" traveltime="21.89" overlapTraveltime="22.07" density="1.36" occupancy="0.22" waitingTime="0.00" speed="27.65" departed="0" arrived="0" entered="67" left="67" laneChangedFrom="4" laneChangedTo="4"/>
        <edge id="321279636#4-AddedOffRampEdge" sampledSeconds="234.84" traveltime="3.32" overlapTraveltime="3.51" density="1.42" occupancy="0.17" waitingTime="0.00" speed="27.65" departed="0" arrived="0" entered="67" left="67" laneChangedFrom="1" laneChangedTo="1"/>
        <edge id="321279636#4-AddedOnRampEdge" sampledSeconds="234.92" traveltime="3.33" overlapTraveltime="3.51" density="1.42" occupancy="0.17" waitingTime="0.00" speed="27.62" departed="0" arrived="0" entered="67" left="67" laneChangedFrom="1" laneChangedTo="1"/>
        <edge id="321279636#5" sampledSeconds="3545.42" traveltime="54.65" overlapTraveltime="54.83" density="1.30" occupancy="0.22" waitingTime="0.00" speed="27.70" departed="0" arrived="0" entered="67" left="63" laneChangedFrom="16" laneChangedTo="16"/>
        <edge id="325686453#1" sampledSeconds="8169.20" traveltime="34.17" overlapTraveltime="34.36" density="4.87" occupancy="0.81" waitingTime="0.00" speed="27.30" departed="0" arrived="0" entered="239" left="237" laneChangedFrom="70" laneChangedTo="70"/>
        <edge id="325686453#1-AddedOffRampEdge" sampledSeconds="844.30" traveltime="3.38" overlapTraveltime="3.56" density="5.10" occupancy="0.61" waitingTime="0.00" speed="27.24" departed="0" arrived="0" entered="237" left="237" laneChangedFrom="11" laneChangedTo="11"/>
        <edge id="325686453#1-AddedOnRampEdge" sampledSeconds="859.82" traveltime="3.41" overlapTraveltime="3.60" density="5.12" occupancy="0.61" waitingTime="0.00" speed="27.33" departed="0" arrived="0" entered="240" left="239" laneChangedFrom="10" laneChangedTo="10"/>
        <edge id="325686453#4" sampledSeconds="1889.65" traveltime="7.89" overlapTraveltime="8.07" density="4.89" occupancy="0.80" waitingTime="0.00" speed="27.24" departed="0" arrived="0" entered="235" left="233" laneChangedFrom="22" laneChangedTo="22"/>
        <edge id="325686453#5" sampledSeconds="897.20" traveltime="3.68" overlapTraveltime="3.87" density="4.96" occupancy="0.79" waitingTime="0.00" speed="27.27" departed="0" arrived="0" entered="232" left="232" laneChangedFrom="6" laneChangedTo="6"/>
        <edge id="325686453#5-AddedOffRampEdge" sampledSeconds="823.09" traveltime="3.37" overlapTraveltime="3.55" density="4.98" occupancy="0.59" waitingTime="0.00" speed="27.28" departed="0" arrived="0" entered="232" left="231" laneChangedFrom="11" laneChangedTo="11"/>
        <edge id="325686453#5-AddedOnRampEdge" sampledSeconds="828.61" traveltime="3.37" overlapTraveltime="3.56" density="5.00" occupancy="0.60" waitingTime="0.00" speed="27.28" departed="0" arrived="0" entered="233" left="232" laneChangedFrom="4" laneChangedTo="4"/>
        <edge id="325686453#6" sampledSeconds="1743.61" traveltime="7.46" overlapTraveltime="7.65" density="4.76" occupancy="0.78" waitingTime="0.00" speed="27.27" departed="0" arrived="0" entered="228" left="228" laneChangedFrom="15" laneChangedTo="15"/>
        <edge id="325686453#6-AddedOffRampEdge" sampledSeconds="811.79" traveltime="3.38" overlapTraveltime="3.56" density="4.90" occupancy="0.58" waitingTime="0.00" speed="27.25" departed="0" arrived="0" entered="228" left="228" laneChangedFrom="7" laneChangedTo="7"/>
        <edge id="325686453#7" sampledSeconds="3946.00" traveltime="17.28" overlapTraveltime="17.46" density="4.66" occupancy="0.77" waitingTime="0.00" speed="27.25" departed="0" arrived="0" entered="228" left="225" laneChangedFrom="34" laneChangedTo="34"/>
        <edge id="325686453#8" sampledSeconds="15886.22" traveltime="71.89" overlapTraveltime="72.08" density="4.51" occupancy="0.75" waitingTime="0.00" speed="27.25" departed="0" arrived="0" entered="225" left="217" laneChangedFrom="203" laneChangedTo="203"/>
        <edge id="325686453#8-AddedOffRampEdge" sampledSeconds="769.02" traveltime="3.38" overlapTraveltime="3.56" density="4.65" occupancy="0.55" waitingTime="0.00" speed="27.22" departed="0" arrived="0" entered="217" left="215" laneChangedFrom="8" laneChangedTo="8"/>
        <edge id="325686453#8-AddedOnRampEdge" sampledSeconds="804.53" traveltime="3.39" overlapTraveltime="3.58" density="4.84" occupancy="0.58" waitingTime="0.00" speed="27.24" departed="0" arrived="0" entered="225" left="225" laneChangedFrom="11" laneChangedTo="11"/>
        <edge id="327268097#1" sampledSeconds="2313.37" traveltime="36.64" overlapTraveltime="36.82" density="1.27" occupancy="0.21" waitingTime="0.00" speed="27.64" departed="0" arrived="62" entered="63" left="0" laneChangedFrom="7" laneChangedTo="7"/>
        <edge id="327268097#1-AddedOnRampEdge" sampledSeconds="221.61" traveltime="3.34" overlapTraveltime="3.52" density="1.33" occupancy="0.16" waitingTime="0.00" speed="27.67" departed="0" arrived="0" entered="63" left="63" laneChangedFrom="0" laneChangedTo="0"/>
        <edge id="38245579#0" sampledSeconds="1436.53" traveltime="8.93" overlapTraveltime="9.08" density="2.82" occupancy="0.69" waitingTime="0.00" speed="31.71" departed="0" arrived="0" entered="160" left="157" laneChangedFrom="9" laneChangedTo="9"/>
        <edge id="38245579#1" sampledSeconds="10531.30" traveltime="68.64" overlapTraveltime="68.79" density="2.60" occupancy="0.65" waitingTime="0.00" speed="32.82" departed="0" arrived="150" entered="157" left="0" laneChangedFrom="101" laneChangedTo="101"/>
        <edge id="38245579#1-AddedOnRampEdge" sampledSeconds="465.91" traveltime="2.81" overlapTraveltime="2.97" density="2.81" occupancy="0.44" waitingTime="0.00" speed="32.76" departed="0" arrived="0" entered="157" left="157" laneChangedFrom="5" laneChangedTo="5"/>
        <edge id="398588970" sampledSeconds="0.00" departed="0" arrived="0" entered="0" left="0" laneChangedFrom="0" laneChangedTo="0"/>
        <edge id="40388800" sampledSeconds="1048.14" traveltime="11.41" overlapTraveltime="11.59" density="1.85" occupancy="0.45" waitingTime="0.00" speed="27.63" departed="0" arrived="0" entered="91" left="90" laneChangedFrom="5" laneChangedTo="5"/>
        <edge id="4258460" sampledSeconds="4686.83" traveltime="28.91" overlapTraveltime="29.10" density="3.30" occupancy="0.82" waitingTime="0.00" speed="27.31" departed="0" arrived="0" entered="162" left="160" laneChangedFrom="24" laneChangedTo="24"/>
        <edge id="4258491" sampledSeconds="9.80" traveltime="4.52" overlapTraveltime="4.90" density="0.06" occupancy="0.03" waitingTime="0.00" speed="19.50" departed="0" arrived="0" entered="2" left="2" laneChangedFrom="0" laneChangedTo="0"/>
        <edge id="42872148#0" sampledSeconds="0.00" departed="0" arrived="0" entered="0" left="0" laneChangedFrom="0" laneChangedTo="0"/>
        <edge id="42872148#1" sampledSeconds="0.00" departed="0" arrived="0" entered="0" left="0" laneChangedFrom="0" laneChangedTo="0"/>
        <edge id="42872148#1-AddedOnRampEdge" sampledSeconds="0.00" departed="0" arrived="0" entered="0" left="0" laneChangedFrom="0" laneChangedTo="0"/>