<?xml version="1.0" encoding="UTF-8"?>

<!-- generated on 11/05/19 11:04:24 by Eclipse SUMO Version 1.3.1
<configuration xmlns:xsi="http://www.w3.org/2001/XMLSchema-instance" xsi:noNamespaceSchemaLocation="http://sumo.dlr.de/xsd/sumoConfiguration.xsd">

    <input>
        <net-file value="M50network.net.xml"/>
        <additional-files value="vtypes.add.xml,M50_routes.rou.xml,M50_emitters.emi.xml,M50_detectors.poi.xml,outputs.add.xml"/>
    </input>

    <output>
        <tripinfo-output value="output/tripinfo.out.xml"/>
    </output>

    <time>
        <begin value="0"/>
        <end value="86400"/>
        <step-length value="0.5"/>
    </time>

    <processing>
        <collision.mingap-factor value="0"/>
        <emergencydecel.warning-threshold value="5"/>
    </processing>

    <report>
        <log value="output/log.xml"/>
    </report>

    <gui_only>
        <tracker-interval value="0.5"/>
    </gui_only>

</configuration>
-->

<meandata xmlns:xsi="http://www.w3.org/2001/XMLSchema-instance" xsi:noNamespaceSchemaLocation="http://sumo.dlr.de/xsd/meandata_file.xsd">
    <interval begin="0.00" end="1800.00" id="1">
        <edge id="106130759" sampledSeconds="6447.37" traveltime="28.85" overlapTraveltime="29.03" density="4.52" occupancy="0.57" waitingTime="0.00" speed="27.45" departed="449" arrived="0" entered="0" left="446" laneChangedFrom="286" laneChangedTo="286"/>
        <edge id="106130759-AddedOffRampEdge" sampledSeconds="2157.04" traveltime="4.79" overlapTraveltime="5.03" density="9.61" occupancy="0.93" waitingTime="0.00" speed="25.81" departed="0" arrived="0" entered="430" left="429" laneChangedFrom="49" laneChangedTo="49"/>
        <edge id="106130759.1186" sampledSeconds="7227.53" traveltime="16.17" overlapTraveltime="16.36" density="9.05" occupancy="1.13" waitingTime="0.00" speed="27.44" departed="0" arrived="0" entered="444" left="440" laneChangedFrom="92" laneChangedTo="92"/>
        <edge id="106130759.1630" sampledSeconds="3884.39" traveltime="8.69" overlapTraveltime="8.87" density="9.07" occupancy="1.12" waitingTime="0.00" speed="27.40" departed="0" arrived="0" entered="440" left="437" laneChangedFrom="30" laneChangedTo="30"/>
        <edge id="106130759.1868" sampledSeconds="3755.46" traveltime="8.41" overlapTraveltime="8.59" density="9.08" occupancy="1.12" waitingTime="0.00" speed="27.34" departed="0" arrived="0" entered="437" left="437" laneChangedFrom="42" laneChangedTo="42"/>
        <edge id="106130759.2098" sampledSeconds="5488.12" traveltime="12.41" overlapTraveltime="12.60" density="9.00" occupancy="1.12" waitingTime="0.00" speed="27.29" departed="0" arrived="0" entered="437" left="433" laneChangedFrom="57" laneChangedTo="57"/>
        <edge id="106130759.2437" sampledSeconds="2467.72" traveltime="5.53" overlapTraveltime="5.72" density="9.12" occupancy="1.12" waitingTime="0.00" speed="27.19" departed="0" arrived="0" entered="433" left="430" laneChangedFrom="80" laneChangedTo="80"/>
        <edge id="106130759.791" sampledSeconds="6485.04" traveltime="14.38" overlapTraveltime="14.56" density="9.14" occupancy="1.14" waitingTime="0.00" speed="27.42" departed="0" arrived="0" entered="446" left="444" laneChangedFrom="166" laneChangedTo="166"/>
        <edge id="11955830" sampledSeconds="3685.80" traveltime="16.42" overlapTraveltime="16.73" density="7.59" occupancy="1.25" waitingTime="0.00" speed="16.44" departed="0" arrived="0" entered="221" left="220" laneChangedFrom="58" laneChangedTo="58"/>
        <edge id="11955831" sampledSeconds="1605.27" traveltime="6.74" overlapTraveltime="7.04" density="8.01" occupancy="0.96" waitingTime="0.00" speed="16.53" departed="0" arrived="0" entered="228" left="228" laneChangedFrom="22" laneChangedTo="22"/>
        <edge id="11959492" sampledSeconds="4078.81" traveltime="35.55" overlapTraveltime="36.12" density="7.87" occupancy="3.87" waitingTime="0.00" speed="8.11" departed="0" arrived="0" entered="115" left="110" laneChangedFrom="0" laneChangedTo="0"/>
        <edge id="11994462" sampledSeconds="1964.79" traveltime="21.38" overlapTraveltime="21.95" density="6.22" occupancy="1.52" waitingTime="0.00" speed="8.22" departed="0" arrived="0" entered="90" left="89" laneChangedFrom="10" laneChangedTo="10"/>
        <edge id="11994462-AddedOnRampEdge" sampledSeconds="712.31" traveltime="7.31" overlapTraveltime="7.91" density="6.59" occupancy="1.52" waitingTime="0.00" speed="8.22" departed="0" arrived="0" entered="90" left="90" laneChangedFrom="45" laneChangedTo="45"/>
        <edge id="128189136" sampledSeconds="3610.00" traveltime="15.60" overlapTraveltime="15.90" density="7.87" occupancy="1.95" waitingTime="0.00" speed="16.34" departed="0" arrived="0" entered="228" left="226" laneChangedFrom="48" laneChangedTo="48"/>
        <edge id="146909950#0" sampledSeconds="623.04" traveltime="2.92" overlapTraveltime="3.14" density="5.42" occupancy="0.50" waitingTime="0.00" speed="21.91" departed="0" arrived="0" entered="199" left="198" laneChangedFrom="5" laneChangedTo="5"/>
        <edge id="146909950#1" sampledSeconds="598.65" traveltime="5.21" overlapTraveltime="5.49" density="3.00" occupancy="0.48" waitingTime="0.00" speed="21.07" departed="0" arrived="0" entered="109" left="109" laneChangedFrom="2" laneChangedTo="2"/>
        <edge id="155345296#0" sampledSeconds="415.89" traveltime="16.32" overlapTraveltime="16.64" density="0.90" occupancy="0.22" waitingTime="0.00" speed="15.75" departed="0" arrived="0" entered="25" left="25" laneChangedFrom="1" laneChangedTo="1"/>
        <edge id="155345296#1" sampledSeconds="268.27" traveltime="3.88" overlapTraveltime="4.19" density="2.40" occupancy="0.37" waitingTime="0.00" speed="15.98" departed="0" arrived="0" entered="64" left="64" laneChangedFrom="39" laneChangedTo="39"/>
        <edge id="16403444#0" sampledSeconds="1024.08" traveltime="15.90" overlapTraveltime="16.21" density="2.25" occupancy="0.55" waitingTime="0.00" speed="15.93" departed="0" arrived="0" entered="64" left="62" laneChangedFrom="16" laneChangedTo="16"/>
        <edge id="16403444#1" sampledSeconds="1252.14" traveltime="9.26" overlapTraveltime="9.57" density="4.64" occupancy="0.75" waitingTime="0.00" speed="16.20" departed="0" arrived="0" entered="131" left="130" laneChangedFrom="17" laneChangedTo="17"/>
        <edge id="16403446" sampledSeconds="1560.32" traveltime="6.75" overlapTraveltime="7.06" density="7.88" occupancy="1.91" waitingTime="0.00" speed="16.29" departed="0" arrived="0" entered="221" left="221" laneChangedFrom="5" laneChangedTo="5"/>
        <edge id="16808971" sampledSeconds="1520.88" traveltime="20.85" overlapTraveltime="21.16" density="2.47" occupancy="1.23" waitingTime="0.00" speed="16.40" departed="0" arrived="0" entered="72" left="71" laneChangedFrom="0" laneChangedTo="0"/>
        <edge id="17516648" sampledSeconds="573.50" traveltime="5.85" overlapTraveltime="6.45" density="3.55" occupancy="0.83" waitingTime="0.00" speed="14.71" departed="0" arrived="0" entered="89" left="89" laneChangedFrom="39" laneChangedTo="39"/>
        <edge id="17550539" sampledSeconds="831.23" traveltime="6.05" overlapTraveltime="6.35" density="4.64" occupancy="2.21" waitingTime="0.00" speed="16.47" departed="0" arrived="0" entered="131" left="131" laneChangedFrom="0" laneChangedTo="0"/>
        <edge id="18702678" sampledSeconds="162.11" traveltime="3.74" overlapTraveltime="4.11" density="1.52" occupancy="0.70" waitingTime="0.00" speed="15.61" departed="0" arrived="0" entered="40" left="39" laneChangedFrom="0" laneChangedTo="0"/>
        <edge id="18702680" sampledSeconds="189.77" traveltime="4.56" overlapTraveltime="4.87" density="1.47" occupancy="0.69" waitingTime="0.00" speed="15.72" departed="0" arrived="0" entered="39" left="39" laneChangedFrom="0" laneChangedTo="0"/>
        <edge id="18702682" sampledSeconds="224.63" traveltime="5.40" overlapTraveltime="5.76" density="1.73" occupancy="0.81" waitingTime="0.00" speed="13.40" departed="0" arrived="0" entered="39" left="39" laneChangedFrom="0" laneChangedTo="0"/>
        <edge id="208416643" sampledSeconds="15.76" traveltime="0.68" overlapTraveltime="0.99" density="0.77" occupancy="0.13" waitingTime="0.00" speed="16.57" departed="0" arrived="0" entered="16" left="16" laneChangedFrom="0" laneChangedTo="0"/>
        <edge id="22941414" sampledSeconds="2718.56" traveltime="15.14" overlapTraveltime="15.44" density="6.15" occupancy="1.51" waitingTime="0.00" speed="16.24" departed="0" arrived="0" entered="177" left="176" laneChangedFrom="21" laneChangedTo="21"/>
        <edge id="22941416#0" sampledSeconds="647.09" traveltime="7.30" overlapTraveltime="7.61" density="3.07" occupancy="1.47" waitingTime="0.00" speed="16.05" departed="0" arrived="0" entered="85" left="85" laneChangedFrom="0" laneChangedTo="0"/>
        <edge id="22941416#1" sampledSeconds="1941.01" traveltime="22.85" overlapTraveltime="23.17" density="2.98" occupancy="1.47" waitingTime="0.00" speed="15.85" departed="0" arrived="0" entered="85" left="83" laneChangedFrom="0" laneChangedTo="0"/>
        <edge id="261187938" sampledSeconds="401.61" traveltime="1.84" overlapTraveltime="2.07" density="5.58" occupancy="0.62" waitingTime="0.00" speed="21.72" departed="0" arrived="0" entered="194" left="194" laneChangedFrom="3" laneChangedTo="3"/>
        <edge id="261187938-AddedOffRampEdge" sampledSeconds="929.74" traveltime="4.51" overlapTraveltime="4.79" density="5.39" occupancy="0.64" waitingTime="0.00" speed="21.05" departed="0" arrived="0" entered="194" left="194" laneChangedFrom="4" laneChangedTo="4"/>
        <edge id="261583463" sampledSeconds="253.92" traveltime="12.36" overlapTraveltime="12.70" density="0.71" occupancy="0.35" waitingTime="0.00" speed="16.10" departed="0" arrived="0" entered="20" left="20" laneChangedFrom="0" laneChangedTo="0"/>
        <edge id="261583464" sampledSeconds="1014.72" traveltime="10.73" overlapTraveltime="11.04" density="3.20" occupancy="1.57" waitingTime="0.00" speed="16.41" departed="0" arrived="0" entered="92" left="91" laneChangedFrom="0" laneChangedTo="0"/>
        <edge id="26378010" sampledSeconds="523.85" traveltime="5.39" overlapTraveltime="5.69" density="3.38" occupancy="1.61" waitingTime="0.00" speed="15.99" departed="0" arrived="0" entered="92" left="92" laneChangedFrom="0" laneChangedTo="0"/>
        <edge id="26380527" sampledSeconds="1160.18" traveltime="9.61" overlapTraveltime="9.92" density="2.61" occupancy="0.64" waitingTime="0.00" speed="25.45" departed="0" arrived="0" entered="117" left="117" laneChangedFrom="3" laneChangedTo="3"/>
        <edge id="273755091#2" sampledSeconds="154.24" traveltime="0.52" overlapTraveltime="0.87" density="14.47" occupancy="1.43" waitingTime="6.00" speed="12.67" departed="0" arrived="0" entered="178" left="178" laneChangedFrom="0" laneChangedTo="0"/>
        <edge id="28001589" sampledSeconds="470.90" traveltime="3.83" overlapTraveltime="4.13" density="4.10" occupancy="0.96" waitingTime="0.00" speed="16.69" departed="0" arrived="0" entered="114" left="114" laneChangedFrom="0" laneChangedTo="0"/>
        <edge id="28458821" sampledSeconds="1906.85" traveltime="22.80" overlapTraveltime="23.12" density="2.91" occupancy="1.44" waitingTime="0.00" speed="15.94" departed="0" arrived="0" entered="83" left="82" laneChangedFrom="0" laneChangedTo="0"/>
        <edge id="28458824" sampledSeconds="2367.89" traveltime="26.38" overlapTraveltime="26.68" density="3.04" occupancy="1.52" waitingTime="0.00" speed="16.40" departed="0" arrived="0" entered="91" left="88" laneChangedFrom="0" laneChangedTo="0"/>
        <edge id="28458828" sampledSeconds="1619.55" traveltime="4.92" overlapTraveltime="5.22" density="11.21" occupancy="1.06" waitingTime="0.00" speed="16.33" departed="0" arrived="0" entered="310" left="310" laneChangedFrom="174" laneChangedTo="174"/>
        <edge id="28458895" sampledSeconds="1592.85" traveltime="4.94" overlapTraveltime="5.17" density="8.81" occupancy="1.05" waitingTime="0.00" speed="20.41" departed="0" arrived="0" entered="309" left="308" laneChangedFrom="27" laneChangedTo="27"/>
        <edge id="28531510" sampledSeconds="169.88" traveltime="2.84" overlapTraveltime="3.15" density="2.06" occupancy="0.47" waitingTime="0.00" speed="16.19" departed="0" arrived="0" entered="54" left="54" laneChangedFrom="20" laneChangedTo="20"/>
        <edge id="28531510.48" sampledSeconds="423.65" traveltime="7.54" overlapTraveltime="7.85" density="1.91" occupancy="0.93" waitingTime="0.00" speed="16.32" departed="0" arrived="0" entered="54" left="54" laneChangedFrom="0" laneChangedTo="0"/>
        <edge id="29038677" sampledSeconds="776.15" traveltime="15.93" overlapTraveltime="16.24" density="1.67" occupancy="0.82" waitingTime="0.00" speed="16.18" departed="0" arrived="0" entered="49" left="46" laneChangedFrom="0" laneChangedTo="0"/>
        <edge id="29332864" sampledSeconds="2071.25" traveltime="21.78" overlapTraveltime="22.09" density="3.19" occupancy="1.59" waitingTime="0.00" speed="16.57" departed="0" arrived="0" entered="94" left="93" laneChangedFrom="0" laneChangedTo="0"/>
        <edge id="293596618#1-AddedOffRampEdge" sampledSeconds="2254.56" traveltime="22.34" overlapTraveltime="22.57" density="2.58" occupancy="0.32" waitingTime="0.00" speed="21.77" departed="194" arrived="0" entered="0" left="194" laneChangedFrom="20" laneChangedTo="20"/>
        <edge id="30414032" sampledSeconds="4624.38" traveltime="18.38" overlapTraveltime="18.69" density="8.59" occupancy="4.22" waitingTime="0.00" speed="16.28" departed="0" arrived="0" entered="249" left="247" laneChangedFrom="0" laneChangedTo="0"/>
        <edge id="319144060" sampledSeconds="3133.53" traveltime="16.54" overlapTraveltime="16.84" density="6.43" occupancy="1.05" waitingTime="0.00" speed="16.36" departed="333" arrived="0" entered="0" left="333" laneChangedFrom="26" laneChangedTo="26"/>
        <edge id="328393125" sampledSeconds="2978.87" traveltime="11.24" overlapTraveltime="11.42" density="5.37" occupancy="0.66" waitingTime="0.00" speed="27.43" departed="0" arrived="0" entered="263" left="259" laneChangedFrom="65" laneChangedTo="65"/>
        <edge id="328393125-AddedOnRampEdge" sampledSeconds="1186.93" traveltime="4.32" overlapTraveltime="4.51" density="6.53" occupancy="0.62" waitingTime="0.00" speed="23.48" departed="0" arrived="0" entered="263" left="263" laneChangedFrom="44" laneChangedTo="44"/>
        <edge id="332655578" sampledSeconds="3555.82" traveltime="39.40" overlapTraveltime="39.95" density="6.05" occupancy="1.49" waitingTime="0.00" speed="8.30" departed="0" arrived="0" entered="89" left="89" laneChangedFrom="120" laneChangedTo="120"/>
        <edge id="332655581" sampledSeconds="852.69" traveltime="7.49" overlapTraveltime="7.75" density="4.03" occupancy="1.91" waitingTime="0.00" speed="15.80" departed="0" arrived="0" entered="110" left="110" laneChangedFrom="0" laneChangedTo="0"/>
        <edge id="345616204#1" sampledSeconds="4302.14" traveltime="12.04" overlapTraveltime="12.22" density="7.24" occupancy="0.90" waitingTime="0.00" speed="27.43" departed="0" arrived="0" entered="352" left="352" laneChangedFrom="79" laneChangedTo="79"/>
        <edge id="345616204#1-AddedOnRampEdge" sampledSeconds="1339.87" traveltime="3.62" overlapTraveltime="3.81" density="8.09" occupancy="0.77" waitingTime="0.00" speed="25.50" departed="0" arrived="0" entered="352" left="352" laneChangedFrom="133" laneChangedTo="133"/>
        <edge id="345616204#1.334" sampledSeconds="4161.75" traveltime="11.66" overlapTraveltime="11.84" density="7.19" occupancy="0.89" waitingTime="0.00" speed="27.59" departed="0" arrived="0" entered="352" left="350" laneChangedFrom="32" laneChangedTo="32"/>
        <edge id="345616204#1.655" sampledSeconds="4844.14" traveltime="13.74" overlapTraveltime="13.92" density="7.09" occupancy="0.88" waitingTime="0.00" speed="27.62" departed="0" arrived="348" entered="350" left="0" laneChangedFrom="7" laneChangedTo="7"/>
        <edge id="360361373" sampledSeconds="4975.29" traveltime="17.05" overlapTraveltime="17.24" density="6.02" occupancy="0.75" waitingTime="0.00" speed="26.93" departed="0" arrived="0" entered="290" left="288" laneChangedFrom="80" laneChangedTo="80"/>
        <edge id="360361373-AddedOffRampEdge" sampledSeconds="1007.88" traveltime="3.45" overlapTraveltime="3.64" density="6.01" occupancy="0.57" waitingTime="0.00" speed="27.00" departed="0" arrived="0" entered="277" left="277" laneChangedFrom="56" laneChangedTo="56"/>
        <edge id="360361373-AddedOnRampEdge" sampledSeconds="1139.48" traveltime="3.74" overlapTraveltime="3.93" density="6.88" occupancy="0.65" waitingTime="0.00" speed="24.70" departed="0" arrived="0" entered="290" left="290" laneChangedFrom="112" laneChangedTo="112"/>
        <edge id="360361373.1498" sampledSeconds="4230.74" traveltime="14.82" overlapTraveltime="15.00" density="5.86" occupancy="0.73" waitingTime="0.00" speed="27.07" departed="0" arrived="0" entered="282" left="282" laneChangedFrom="34" laneChangedTo="34"/>
        <edge id="360361373.1899" sampledSeconds="3322.26" traveltime="11.64" overlapTraveltime="11.83" density="5.86" occupancy="0.72" waitingTime="0.00" speed="27.06" departed="0" arrived="0" entered="282" left="280" laneChangedFrom="30" laneChangedTo="30"/>
        <edge id="360361373.2215" sampledSeconds="4458.93" traveltime="15.80" overlapTraveltime="15.99" density="5.79" occupancy="0.72" waitingTime="0.00" speed="27.06" departed="0" arrived="0" entered="280" left="277" laneChangedFrom="26" laneChangedTo="26"/>
        <edge id="360361373.2643" sampledSeconds="4257.75" traveltime="15.19" overlapTraveltime="15.38" density="5.75" occupancy="0.71" waitingTime="0.00" speed="27.07" departed="0" arrived="0" entered="277" left="277" laneChangedFrom="54" laneChangedTo="54"/>
        <edge id="360361373.463" sampledSeconds="5564.66" traveltime="19.16" overlapTraveltime="19.35" density="5.96" occupancy="0.74" waitingTime="0.00" speed="27.06" departed="0" arrived="0" entered="288" left="285" laneChangedFrom="85" laneChangedTo="85"/>
        <edge id="360361373.981" sampledSeconds="5461.42" traveltime="19.07" overlapTraveltime="19.25" density="5.88" occupancy="0.73" waitingTime="0.00" speed="27.06" departed="0" arrived="0" entered="285" left="282" laneChangedFrom="71" laneChangedTo="71"/>
        <edge id="4074534" sampledSeconds="329.30" traveltime="4.83" overlapTraveltime="5.15" density="2.37" occupancy="0.56" waitingTime="0.00" speed="15.95" departed="0" arrived="0" entered="64" left="64" laneChangedFrom="12" laneChangedTo="12"/>
        <edge id="41517592" sampledSeconds="845.13" traveltime="9.31" overlapTraveltime="9.50" density="2.65" occupancy="0.64" waitingTime="0.00" speed="19.17" departed="0" arrived="0" entered="89" left="89" laneChangedFrom="76" laneChangedTo="76"/>
        <edge id="428960734" sampledSeconds="6695.12" traveltime="21.68" overlapTraveltime="21.91" density="7.82" occupancy="0.97" waitingTime="0.00" speed="21.92" departed="0" arrived="305" entered="307" left="0" laneChangedFrom="35" laneChangedTo="35"/>
        <edge id="428960735" sampledSeconds="916.43" traveltime="2.75" overlapTraveltime="2.98" density="8.46" occupancy="0.98" waitingTime="0.00" speed="21.90" departed="0" arrived="0" entered="308" left="308" laneChangedFrom="9" laneChangedTo="9"/>
        <edge id="429432523" sampledSeconds="2181.29" traveltime="6.76" overlapTraveltime="7.06" density="10.94" occupancy="1.31" waitingTime="0.00" speed="16.41" departed="0" arrived="0" entered="310" left="309" laneChangedFrom="51" laneChangedTo="51"/>
        <edge id="429432524" sampledSeconds="1734.83" traveltime="7.53" overlapTraveltime="7.83" density="5.07" occupancy="0.82" waitingTime="0.00" speed="24.94" departed="0" arrived="0" entered="222" left="221" laneChangedFrom="46" laneChangedTo="46"/>
        <edge id="429432526" sampledSeconds="4730.96" traveltime="27.94" overlapTraveltime="28.24" density="5.71" occupancy="1.42" waitingTime="0.00" speed="16.48" departed="0" arrived="0" entered="171" left="165" laneChangedFrom="24" laneChangedTo="24"/>
        <edge id="429432925" sampledSeconds="144.25" traveltime="0.16" overlapTraveltime="0.47" density="30.36" occupancy="1.31" waitingTime="0.00" speed="16.39" departed="0" arrived="0" entered="310" left="310" laneChangedFrom="3" laneChangedTo="3"/>
        <edge id="431199180" sampledSeconds="576.26" traveltime="3.04" overlapTraveltime="3.28" density="5.24" occupancy="0.60" waitingTime="0.00" speed="20.16" departed="0" arrived="0" entered="176" left="176" laneChangedFrom="12" laneChangedTo="12"/>
        <edge id="4402237" sampledSeconds="295.77" traveltime="4.31" overlapTraveltime="4.62" density="2.39" occupancy="0.37" waitingTime="0.00" speed="15.94" departed="0" arrived="0" entered="64" left="64" laneChangedFrom="5" laneChangedTo="5"/>
        <edge id="4402297" sampledSeconds="2739.63" traveltime="13.04" overlapTraveltime="13.22" density="4.24" occupancy="0.70" waitingTime="0.00" speed="27.51" departed="0" arrived="0" entered="208" left="206" laneChangedFrom="20" laneChangedTo="20"/>
        <edge id="4404096" sampledSeconds="950.51" traveltime="13.28" overlapTraveltime="13.58" density="2.41" occupancy="0.40" waitingTime="0.00" speed="16.50" departed="0" arrived="0" entered="70" left="70" laneChangedFrom="36" laneChangedTo="36"/>
        <edge id="4414080#0" sampledSeconds="2657.15" traveltime="9.38" overlapTraveltime="9.59" density="5.92" occupancy="0.58" waitingTime="0.00" speed="26.54" departed="0" arrived="0" entered="277" left="277" laneChangedFrom="47" laneChangedTo="47"/>
        <edge id="4414080#0.187" sampledSeconds="2485.41" traveltime="17.20" overlapTraveltime="17.38" density="2.94" occupancy="0.49" waitingTime="0.00" speed="27.30" departed="0" arrived="0" entered="143" left="143" laneChangedFrom="26" laneChangedTo="26"/>
        <edge id="4414080#0.756" sampledSeconds="556.93" traveltime="2.01" overlapTraveltime="2.21" density="6.46" occupancy="0.73" waitingTime="0.00" speed="23.93" departed="0" arrived="0" entered="253" left="252" laneChangedFrom="121" laneChangedTo="121"/>
        <edge id="4414080#0.756.47" sampledSeconds="556.93" traveltime="2.03" overlapTraveltime="2.22" density="5.83" occupancy="0.89" waitingTime="0.00" speed="26.19" departed="0" arrived="0" entered="252" left="251" laneChangedFrom="9" laneChangedTo="9"/>
        <edge id="4414080#1-AddedOnRampEdge" sampledSeconds="4255.17" traveltime="12.76" overlapTraveltime="12.94" density="6.89" occupancy="0.85" waitingTime="0.00" speed="26.90" departed="0" arrived="0" entered="333" left="325" laneChangedFrom="142" laneChangedTo="142"/>
        <edge id="4414080#1-AddedOnRampEdge.343" sampledSeconds="3993.43" traveltime="12.10" overlapTraveltime="12.29" density="6.69" occupancy="0.83" waitingTime="0.00" speed="27.41" departed="0" arrived="0" entered="325" left="325" laneChangedFrom="118" laneChangedTo="118"/>
        <edge id="4414080#1-AddedOnRampEdge.675" sampledSeconds="2850.79" traveltime="8.59" overlapTraveltime="8.77" density="6.73" occupancy="0.83" waitingTime="0.00" speed="27.40" departed="0" arrived="0" entered="325" left="324" laneChangedFrom="47" laneChangedTo="47"/>
        <edge id="457424511#3" sampledSeconds="3550.67" traveltime="24.94" overlapTraveltime="25.25" density="4.76" occupancy="0.79" waitingTime="0.00" speed="16.62" departed="274" arrived="0" entered="0" left="274" laneChangedFrom="129" laneChangedTo="129"/>
        <edge id="457424511#3.414" sampledSeconds="6146.59" traveltime="22.27" overlapTraveltime="22.60" density="9.32" occupancy="1.55" waitingTime="0.00" speed="16.44" departed="0" arrived="0" entered="274" left="271" laneChangedFrom="132" laneChangedTo="132"/>
        <edge id="48290550" sampledSeconds="11484.81" traveltime="27.03" overlapTraveltime="27.21" density="8.60" occupancy="1.07" waitingTime="0.00" speed="27.43" departed="0" arrived="0" entered="425" left="421" laneChangedFrom="211" laneChangedTo="211"/>
        <edge id="48290550-AddedOffRampEdge" sampledSeconds="1819.57" traveltime="4.30" overlapTraveltime="4.55" density="9.19" occupancy="0.73" waitingTime="0.00" speed="25.28" departed="0" arrived="0" entered="400" left="400" laneChangedFrom="159" laneChangedTo="159"/>
        <edge id="48290550.1176" sampledSeconds="4720.93" traveltime="11.07" overlapTraveltime="11.25" density="8.62" occupancy="1.06" waitingTime="0.00" speed="27.49" departed="0" arrived="0" entered="421" left="418" laneChangedFrom="57" laneChangedTo="57"/>
        <edge id="48290550.1480" sampledSeconds="6091.59" traveltime="14.48" overlapTraveltime="14.67" density="8.50" occupancy="1.05" waitingTime="0.00" speed="27.51" departed="0" arrived="0" entered="418" left="414" laneChangedFrom="77" laneChangedTo="77"/>
        <edge id="48290550.1878" sampledSeconds="7782.75" traveltime="18.68" overlapTraveltime="18.86" density="8.41" occupancy="1.05" waitingTime="0.00" speed="27.51" departed="0" arrived="0" entered="414" left="412" laneChangedFrom="73" laneChangedTo="73"/>
        <edge id="48290550.2391" sampledSeconds="7724.84" traveltime="18.67" overlapTraveltime="18.85" density="8.37" occupancy="1.04" waitingTime="0.00" speed="27.45" departed="0" arrived="0" entered="412" left="407" laneChangedFrom="63" laneChangedTo="63"/>
        <edge id="48290550.2904" sampledSeconds="5164.34" traveltime="12.61" overlapTraveltime="12.80" density="8.32" occupancy="1.03" waitingTime="0.00" speed="27.34" departed="0" arrived="0" entered="407" left="400" laneChangedFrom="83" laneChangedTo="83"/>
        <edge id="48290550.3266" sampledSeconds="1378.79" traveltime="3.26" overlapTraveltime="3.45" density="8.61" occupancy="0.82" waitingTime="0.00" speed="27.25" departed="0" arrived="0" entered="400" left="400" laneChangedFrom="72" laneChangedTo="72"/>
        <edge id="48290550.745" sampledSeconds="6675.84" traveltime="15.67" overlapTraveltime="15.86" density="8.60" occupancy="1.07" waitingTime="0.00" speed="27.50" departed="0" arrived="0" entered="421" left="421" laneChangedFrom="80" laneChangedTo="80"/>
        <edge id="48290551#0" sampledSeconds="1589.60" traveltime="19.14" overlapTraveltime="19.45" density="2.84" occupancy="0.70" waitingTime="0.00" speed="16.27" departed="0" arrived="0" entered="82" left="81" laneChangedFrom="79" laneChangedTo="79"/>
        <edge id="48290551#1" sampledSeconds="1807.80" traveltime="7.61" overlapTraveltime="7.92" density="8.11" occupancy="1.31" waitingTime="0.00" speed="16.28" departed="0" arrived="0" entered="229" left="228" laneChangedFrom="82" laneChangedTo="82"/>
        <edge id="48290552" sampledSeconds="1077.05" traveltime="8.73" overlapTraveltime="9.33" density="4.45" occupancy="2.12" waitingTime="0.00" speed="14.93" departed="0" arrived="0" entered="116" left="115" laneChangedFrom="0" laneChangedTo="0"/>
        <edge id="48516115" sampledSeconds="2150.85" traveltime="10.54" overlapTraveltime="10.77" density="5.18" occupancy="0.51" waitingTime="0.00" speed="21.89" departed="0" arrived="0" entered="200" left="199" laneChangedFrom="6" laneChangedTo="6"/>
        <edge id="48516117" sampledSeconds="1691.75" traveltime="17.72" overlapTraveltime="17.95" density="2.41" occupancy="0.30" waitingTime="0.00" speed="21.96" departed="201" arrived="0" entered="0" left="201" laneChangedFrom="24" laneChangedTo="24"/>
        <edge id="48516117.389" sampledSeconds="4887.25" traveltime="24.13" overlapTraveltime="24.36" density="5.14" occupancy="0.64" waitingTime="0.00" speed="21.90" departed="0" arrived="0" entered="201" left="200" laneChangedFrom="156" laneChangedTo="156"/>
        <edge id="489961226" sampledSeconds="581.49" traveltime="4.66" overlapTraveltime="4.97" density="4.29" occupancy="1.01" waitingTime="0.00" speed="16.15" departed="0" arrived="0" entered="117" left="117" laneChangedFrom="3" laneChangedTo="3"/>
        <edge id="491989399#0" sampledSeconds="1057.57" traveltime="4.45" overlapTraveltime="4.68" density="6.53" occupancy="1.04" waitingTime="0.00" speed="20.31" departed="0" arrived="0" entered="226" left="226" laneChangedFrom="18" laneChangedTo="18"/>
        <edge id="491989399#1-AddedOnRampEdge" sampledSeconds="7745.38" traveltime="24.29" overlapTraveltime="24.52" density="8.13" occupancy="1.01" waitingTime="0.00" speed="21.78" departed="0" arrived="0" entered="319" left="314" laneChangedFrom="252" laneChangedTo="252"/>
        <edge id="491989399#1-AddedOnRampEdge.533" sampledSeconds="5667.85" traveltime="17.95" overlapTraveltime="18.18" density="8.04" occupancy="1.00" waitingTime="0.00" speed="21.83" departed="0" arrived="0" entered="314" left="310" laneChangedFrom="66" laneChangedTo="66"/>
        <edge id="491989399#1-AddedOnRampEdge.925" sampledSeconds="5608.79" traveltime="18.02" overlapTraveltime="18.25" density="7.92" occupancy="0.98" waitingTime="0.00" speed="21.84" departed="0" arrived="306" entered="310" left="0" laneChangedFrom="16" laneChangedTo="16"/>
        <edge id="492226824" sampledSeconds="457.21" traveltime="4.68" overlapTraveltime="4.92" density="2.80" occupancy="1.32" waitingTime="0.00" speed="19.45" departed="0" arrived="0" entered="93" left="93" laneChangedFrom="0" laneChangedTo="0"/>
        <edge id="492226827" sampledSeconds="1717.74" traveltime="19.00" overlapTraveltime="19.30" density="3.01" occupancy="0.74" waitingTime="0.00" speed="16.71" departed="0" arrived="0" entered="89" left="89" laneChangedFrom="26" laneChangedTo="26"/>
        <edge id="492226831" sampledSeconds="2028.86" traveltime="14.83" overlapTraveltime="15.14" density="4.72" occupancy="1.16" waitingTime="0.00" speed="16.09" departed="0" arrived="0" entered="134" left="134" laneChangedFrom="19" laneChangedTo="19"/>
        <edge id="492229071" sampledSeconds="1024.35" traveltime="7.61" overlapTraveltime="7.82" density="3.37" occupancy="1.63" waitingTime="0.00" speed="22.26" departed="0" arrived="0" entered="131" left="131" laneChangedFrom="0" laneChangedTo="0"/>