<?xml version="1.0" encoding="UTF-8"?>

<!-- generated on 11/01/19 14:44:47 by Eclipse SUMO dfrouter Version 1.3.1
<configuration xmlns:xsi="http://www.w3.org/2001/XMLSchema-instance" xsi:noNamespaceSchemaLocation="http://sumo.dlr.de/xsd/dfrouterConfiguration.xsd">

    <input>
        <net-file value="M50network.net.xml"/>
        <detector-files value="M50_detectors.det.xml"/>
        <measure-files value="M50_flows.csv"/>
    </input>

    <output>
        <routes-output value="M50_routes.rou.xml"/>
        <detectors-poi-output value="M50_detectors.poi.xml"/>
        <emitters-output value="M50_emitters.emi.xml"/>
        <vtype value="true"/>
        <vtype-output value="dfrouter-vtypes.add.xml"/>
    </output>

    <processing>
        <keep-unfinished-routes value="false"/>
        <time-factor value="1"/>
        <time-step value="300"/>
    </processing>

    <defaults>
        <departlane value="best"/>
        <departpos value="random_free"/>
        <departspeed value="max"/>
        <arrivalpos value="max"/>
    </defaults>

</configuration>
-->

<routes xmlns:xsi="http://www.w3.org/2001/XMLSchema-instance" xsi:noNamespaceSchemaLocation="http://sumo.dlr.de/xsd/routes_file.xsd">

    <route id="106130759_to_621521116#0" edges="106130759 106130759.791 106130759.1186 106130759.1630 106130759.1868 106130759.2098 106130759.2437 106130759-AddedOffRampEdge 16403446 16808971 16403444#1 621521116#0"/>
    <route id="106130759_to_491989399#1-AddedOnRampEdge.925" edges="106130759 106130759.791 106130759.1186 106130759.1630 106130759.1868 106130759.2098 106130759.2437 106130759-AddedOffRampEdge 16403446 54121078 48290551#1 128189136 491989399#0 491989399#1-AddedOnRampEdge 491989399#1-AddedOnRampEdge.533 491989399#1-AddedOnRampEdge.925"/>
    <route id="106130759_to_615002705#1" edges="106130759 106130759.791 106130759.1186 106130759.1630 106130759.1868 106130759.2098 106130759.2437 106130759-AddedOffRampEdge 4402297 61047111-AddedOnRampEdge 61047111 61047111.165 48290550 48290550.745 48290550.1176 48290550.1480 48290550.1878 48290550.2391 48290550.2904 48290550.3266 48290550-AddedOffRampEdge 429432524 11955830 29038677 615002705#0 615002705#1"/>
    <route id="106130759_to_428960734" edges="106130759 106130759.791 106130759.1186 106130759.1630 106130759.1868 106130759.2098 106130759.2437 106130759-AddedOffRampEdge 4402297 61047111-AddedOnRampEdge 61047111 61047111.165 48290550 48290550.745 48290550.1176 48290550.1480 48290550.1878 48290550.2391 48290550.2904 48290550.3266 48290550-AddedOffRampEdge 429432524 11955830 429432526 11955831 28458828 429432925 75266091 429432523 28458895 428960735 428960734"/>
    <route id="106130759_to_345616204#1.655" edges="106130759 106130759.791 106130759.1186 106130759.1630 106130759.1868 106130759.2098 106130759.2437 106130759-AddedOffRampEdge 4402297 61047111-AddedOnRampEdge 61047111 61047111.165 48290550 48290550.745 48290550.1176 48290550.1480 48290550.1878 48290550.2391 48290550.2904 48290550.3266 48290550-AddedOffRampEdge gneE0 328393125-AddedOnRampEdge 328393125 345616204#1-AddedOnRampEdge 345616204#1 345616204#1.334 345616204#1.655"/>

    <route id="48516117_to_621521116#0" edges="48516117 48516117.389 48516115 146909950#0 146909950#1 155345296#0 155345296#1 4402237 4074534 16403444#0 16403444#1 621521116#0"/>
    <route id="48516117_to_gneE12" edges="48516117 48516117.389 48516115 146909950#0 146909950#1 71324924 4414080#1-AddedOnRampEdge 4414080#1-AddedOnRampEdge.343 4414080#1-AddedOnRampEdge.675 gneE2 gneE3 gneE4 gneE6 gneE7 gneE10 gneE11 gneE12"/>
    <route id="48516117_to_615002705#1" edges="48516117 48516117.389 48516115 146909950#0 71325123 492226827 17516648 332655578 61047111-AddedOnRampEdge 61047111 61047111.165 48290550 48290550.745 48290550.1176 48290550.1480 48290550.1878 48290550.2391 48290550.2904 48290550.3266 48290550-AddedOffRampEdge 429432524 11955830 29038677 615002705#0 615002705#1"/>
    <route id="48516117_to_428960734" edges="48516117 48516117.389 48516115 146909950#0 71325123 492226827 17516648 332655578 61047111-AddedOnRampEdge 61047111 61047111.165 48290550 48290550.745 48290550.1176 48290550.1480 48290550.1878 48290550.2391 48290550.2904 48290550.3266 48290550-AddedOffRampEdge 429432524 11955830 429432526 11955831 28458828 429432925 75266091 429432523 28458895 428960735 428960734"/>
    <route id="48516117_to_345616204#1.655" edges="48516117 48516117.389 48516115 146909950#0 71325123 492226827 17516648 332655578 61047111-AddedOnRampEdge 61047111 61047111.165 48290550 48290550.745 48290550.1176 48290550.1480 48290550.1878 48290550.2391 48290550.2904 48290550.3266 48290550-AddedOffRampEdge gneE0 328393125-AddedOnRampEdge 328393125 345616204#1-AddedOnRampEdge 345616204#1 345616204#1.334 345616204#1.655"/>

    <route id="293596618#1-AddedOffRampEdge_to_615002705#1" edges="293596618#1-AddedOffRampEdge 261187938 261187938-AddedOffRampEdge 75266085 208416643 4404096 615002705#0 615002705#1"/>
    <route id="293596618#1-AddedOffRampEdge_to_345616204#1.655" edges="293596618#1-AddedOffRampEdge 261187938 261187938-AddedOffRampEdge 22941414 431199180 51744449#0 51744449#1 11994462-AddedOnRampEdge 11994462 41517592 328393125-AddedOnRampEdge 328393125 345616204#1-AddedOnRampEdge 345616204#1 345616204#1.334 345616204#1.655"/>
    <route id="293596618#1-AddedOffRampEdge_to_621521116#0" edges="293596618#1-AddedOffRampEdge 261187938 261187938-AddedOffRampEdge 22941414 431199180 54121214 22941416#0 22941416#1 360361373-AddedOnRampEdge 360361373 360361373.463 360361373.981 360361373.1498 360361373.1899 360361373.2215 360361373.2643 360361373-AddedOffRampEdge 4414080#0 492226831 18702678 18702682 18702680 155345296#1 4402237 4074534 16403444#0 16403444#1 621521116#0"/>
    <route id="293596618#1-AddedOffRampEdge_to_491989399#1-AddedOnRampEdge.925" edges="293596618#1-AddedOffRampEdge 261187938 261187938-AddedOffRampEdge 22941414 431199180 54121214 22941416#0 22941416#1 360361373-AddedOnRampEdge 360361373 360361373.463 360361373.981 360361373.1498 360361373.1899 360361373.2215 360361373.2643 360361373-AddedOffRampEdge 4414080#0 492226831 54121079 492226824 491989399#1-AddedOnRampEdge 491989399#1-AddedOnRampEdge.533 491989399#1-AddedOnRampEdge.925"/>
    <route id="293596618#1-AddedOffRampEdge_to_gneE12" edges="293596618#1-AddedOffRampEdge 261187938 261187938-AddedOffRampEdge 22941414 431199180 54121214 22941416#0 22941416#1 360361373-AddedOnRampEdge 360361373 360361373.463 360361373.981 360361373.1498 360361373.1899 360361373.2215 360361373.2643 360361373-AddedOffRampEdge 4414080#0 4414080#0.187 4414080#0.756 4414080#0.756.47 4414080#1-AddedOnRampEdge 4414080#1-AddedOnRampEdge.343 4414080#1-AddedOnRampEdge.675 gneE2 gneE3 gneE4 gneE6 gneE7 gneE10 gneE11 gneE12"/>

    <route id="75259388-AddedOffRampEdge_to_428960734" edges="75259388-AddedOffRampEdge 75259388-AddedOffRampEdge.381 75259388-AddedOffRampEdge.702 75259388-AddedOffRampEdge.76 75259388-AddedOffRampEdge.122 26380527 489961226 28458821 28458828 429432925 75266091 429432523 28458895 428960735 428960734"/>
    <route id="75259388-AddedOffRampEdge_to_615002705#1" edges="75259388-AddedOffRampEdge 75259388-AddedOffRampEdge.381 75259388-AddedOffRampEdge.702 75259388-AddedOffRampEdge.76 75259388-AddedOffRampEdge.122 26380527 489961226 68025407 28531510 28531510.48 4404096 615002705#0 615002705#1"/>
    <route id="75259388-AddedOffRampEdge_to_621521116#0" edges="75259388-AddedOffRampEdge 75259388-AddedOffRampEdge.381 75259388-AddedOffRampEdge.702 75259388-AddedOffRampEdge.76 75259388-AddedOffRampEdge.122 4937552#0 4937552#1-AddedOnRampEdge 4937552#1 360361373-AddedOnRampEdge 360361373 360361373.463 360361373.981 360361373.1498 360361373.1899 360361373.2215 360361373.2643 360361373-AddedOffRampEdge 4414080#0 492226831 18702678 18702682 18702680 155345296#1 4402237 4074534 16403444#0 16403444#1 621521116#0"/>
    <route id="75259388-AddedOffRampEdge_to_491989399#1-AddedOnRampEdge.925" edges="75259388-AddedOffRampEdge 75259388-AddedOffRampEdge.381 75259388-AddedOffRampEdge.702 75259388-AddedOffRampEdge.76 75259388-AddedOffRampEdge.122 4937552#0 4937552#1-AddedOnRampEdge 4937552#1 360361373-AddedOnRampEdge 360361373 360361373.463 360361373.981 360361373.1498 360361373.1899 360361373.2215 360361373.2643 360361373-AddedOffRampEdge 4414080#0 492226831 54121079 492226824 491989399#1-AddedOnRampEdge 491989399#1-AddedOnRampEdge.533 491989399#1-AddedOnRampEdge.925"/>
    <route id="75259388-AddedOffRampEdge_to_gneE12" edges="75259388-AddedOffRampEdge 75259388-AddedOffRampEdge.381 75259388-AddedOffRampEdge.702 75259388-AddedOffRampEdge.76 75259388-AddedOffRampEdge.122 4937552#0 4937552#1-AddedOnRampEdge 4937552#1 360361373-AddedOnRampEdge 360361373 360361373.463 360361373.981 360361373.1498 360361373.1899 360361373.2215 360361373.2643 360361373-AddedOffRampEdge 4414080#0 4414080#0.187 4414080#0.756 4414080#0.756.47 4414080#1-AddedOnRampEdge 4414080#1-AddedOnRampEdge.343 4414080#1-AddedOnRampEdge.675 gneE2 gneE3 gneE4 gneE6 gneE7 gneE10 gneE11 gneE12"/>

    <route id="319144060_to_491989399#1-AddedOnRampEdge.925" edges="319144060 621521117 48290551#0 48290551#1 128189136 491989399#0 491989399#1-AddedOnRampEdge 491989399#1-AddedOnRampEdge.533 491989399#1-AddedOnRampEdge.925"/>
    <route id="319144060_to_gneE12" edges="319144060 621521117 30414032 48290552 11959492 332655581 4414080#0.756 4414080#0.756.47 4414080#1-AddedOnRampEdge 4414080#1-AddedOnRampEdge.343 4414080#1-AddedOnRampEdge.675 gneE2 gneE3 gneE4 gneE6 gneE7 gneE10 gneE11 gneE12"/>
    <route id="319144060_to_615002705#1" edges="319144060 621521117 30414032 17550539 492229071 61047111.165 48290550 48290550.745 48290550.1176 48290550.1480 48290550.1878 48290550.2391 48290550.2904 48290550.3266 48290550-AddedOffRampEdge 429432524 11955830 29038677 615002705#0 615002705#1"/>
    <route id="319144060_to_428960734" edges="319144060 621521117 30414032 17550539 492229071 61047111.165 48290550 48290550.745 48290550.1176 48290550.1480 48290550.1878 48290550.2391 48290550.2904 48290550.3266 48290550-AddedOffRampEdge 429432524 11955830 429432526 11955831 28458828 429432925 75266091 429432523 28458895 428960735 428960734"/>
    <route id="319144060_to_345616204#1.655" edges="319144060 621521117 30414032 17550539 492229071 61047111.165 48290550 48290550.745 48290550.1176 48290550.1480 48290550.1878 48290550.2391 48290550.2904 48290550.3266 48290550-AddedOffRampEdge gneE0 328393125-AddedOnRampEdge 328393125 345616204#1-AddedOnRampEdge 345616204#1 345616204#1.334 345616204#1.655"/>

    <route id="457424511#3_to_345616204#1.655" edges="457424511#3 457424511#3.414 273755091#2 28001589 29332864 345616204#1-AddedOnRampEdge 345616204#1 345616204#1.334 345616204#1.655"/>
    <route id="457424511#3_to_428960734" edges="457424511#3 457424511#3.414 273755091#2 75266094 11955831 28458828 429432925 75266091 429432523 28458895 428960735 428960734"/>
    <route id="457424511#3_to_615002705#1" edges="457424511#3 457424511#3.414 273755091#2 28001589 261583463 28531510 28531510.48 4404096 615002705#0 615002705#1"/>
    <route id="457424511#3_to_621521116#0" edges="457424511#3 457424511#3.414 26378010 261583464 28458824 4937552#1-AddedOnRampEdge 4937552#1 360361373-AddedOnRampEdge 360361373 360361373.463 360361373.981 360361373.1498 360361373.1899 360361373.2215 360361373.2643 360361373-AddedOffRampEdge 4414080#0 492226831 18702678 18702682 18702680 155345296#1 4402237 4074534 16403444#0 16403444#1 621521116#0"/>
    <route id="457424511#3_to_491989399#1-AddedOnRampEdge.925" edges="457424511#3 457424511#3.414 26378010 261583464 28458824 4937552#1-AddedOnRampEdge 4937552#1 360361373-AddedOnRampEdge 360361373 360361373.463 360361373.981 360361373.1498 360361373.1899 360361373.2215 360361373.2643 360361373-AddedOffRampEdge 4414080#0 492226831 54121079 492226824 491989399#1-AddedOnRampEdge 491989399#1-AddedOnRampEdge.533 491989399#1-AddedOnRampEdge.925"/>
    <route id="457424511#3_to_gneE12" edges="457424511#3 457424511#3.414 26378010 261583464 28458824 4937552#1-AddedOnRampEdge 4937552#1 360361373-AddedOnRampEdge 360361373 360361373.463 360361373.981 360361373.1498 360361373.1899 360361373.2215 360361373.2643 360361373-AddedOffRampEdge 4414080#0 4414080#0.187 4414080#0.756 4414080#0.756.47 4414080#1-AddedOnRampEdge 4414080#1-AddedOnRampEdge.343 4414080#1-AddedOnRampEdge.675 gneE2 gneE3 gneE4 gneE6 gneE7 gneE10 gneE11 gneE12"/>


</routes>
