<?xml version="1.0" encoding="UTF-8"?>

<!-- generated on 11/05/19 11:04:21 by Eclipse SUMO Version 1.3.1
<configuration xmlns:xsi="http://www.w3.org/2001/XMLSchema-instance" xsi:noNamespaceSchemaLocation="http://sumo.dlr.de/xsd/sumoConfiguration.xsd">

    <input>
        <net-file value="M50network.net.xml"/>
        <additional-files value="vtypes.add.xml,M50_routes.rou.xml,M50_emitters.emi.xml,M50_detectors.poi.xml,outputs.add.xml"/>
    </input>

    <output>
        <tripinfo-output value="output/tripinfo.out.xml"/>
    </output>

    <time>
        <begin value="0"/>
        <end value="86400"/>
        <step-length value="0.5"/>
    </time>

    <processing>
        <collision.mingap-factor value="0"/>
        <emergencydecel.warning-threshold value="5"/>
    </processing>

    <report>
        <log value="output/log.xml"/>
    </report>

    <gui_only>
        <tracker-interval value="0.5"/>
    </gui_only>

</configuration>
-->

<meandata xmlns:xsi="http://www.w3.org/2001/XMLSchema-instance" xsi:noNamespaceSchemaLocation="http://sumo.dlr.de/xsd/meandata_file.xsd">
    <interval begin="0.00" end="1800.00" id="1">
        <edge id="106130759" sampledSeconds="6528.81" traveltime="28.95" overlapTraveltime="29.14" density="4.58" occupancy="0.58" waitingTime="0.00" speed="27.35" departed="449" arrived="0" entered="0" left="446" laneChangedFrom="233" laneChangedTo="233"/>
        <edge id="106130759-AddedOffRampEdge" sampledSeconds="2169.23" traveltime="4.81" overlapTraveltime="5.05" density="9.67" occupancy="0.94" waitingTime="0.00" speed="25.69" departed="0" arrived="0" entered="431" left="429" laneChangedFrom="38" laneChangedTo="38"/>
        <edge id="106130759.1186" sampledSeconds="7245.65" traveltime="16.21" overlapTraveltime="16.39" density="9.07" occupancy="1.13" waitingTime="0.00" speed="27.38" departed="0" arrived="0" entered="444" left="440" laneChangedFrom="80" laneChangedTo="80"/>
        <edge id="106130759.1630" sampledSeconds="3893.01" traveltime="8.70" overlapTraveltime="8.89" density="9.09" occupancy="1.12" waitingTime="0.00" speed="27.35" departed="0" arrived="0" entered="440" left="437" laneChangedFrom="38" laneChangedTo="38"/>
        <edge id="106130759.1868" sampledSeconds="3759.02" traveltime="8.42" overlapTraveltime="8.60" density="9.08" occupancy="1.12" waitingTime="0.00" speed="27.31" departed="0" arrived="0" entered="437" left="437" laneChangedFrom="37" laneChangedTo="37"/>
        <edge id="106130759.2098" sampledSeconds="5503.03" traveltime="12.45" overlapTraveltime="12.64" density="9.03" occupancy="1.12" waitingTime="0.00" speed="27.20" departed="0" arrived="0" entered="437" left="433" laneChangedFrom="60" laneChangedTo="60"/>
        <edge id="106130759.2437" sampledSeconds="2481.84" traveltime="5.56" overlapTraveltime="5.75" density="9.17" occupancy="1.12" waitingTime="0.00" speed="27.03" departed="0" arrived="0" entered="433" left="431" laneChangedFrom="83" laneChangedTo="83"/>
        <edge id="106130759.791" sampledSeconds="6502.24" traveltime="14.42" overlapTraveltime="14.60" density="9.16" occupancy="1.14" waitingTime="0.00" speed="27.35" departed="0" arrived="0" entered="446" left="444" laneChangedFrom="135" laneChangedTo="135"/>
        <edge id="11955830" sampledSeconds="3701.16" traveltime="16.52" overlapTraveltime="16.82" density="7.62" occupancy="1.25" waitingTime="0.00" speed="16.34" departed="0" arrived="0" entered="220" left="220" laneChangedFrom="54" laneChangedTo="54"/>
        <edge id="11955831" sampledSeconds="1615.72" traveltime="6.79" overlapTraveltime="7.09" density="8.06" occupancy="0.97" waitingTime="0.00" speed="16.42" departed="0" arrived="0" entered="228" left="228" laneChangedFrom="27" laneChangedTo="27"/>
        <edge id="11959492" sampledSeconds="4145.31" traveltime="36.16" overlapTraveltime="36.73" density="8.00" occupancy="3.93" waitingTime="0.00" speed="7.98" departed="0" arrived="0" entered="115" left="110" laneChangedFrom="0" laneChangedTo="0"/>
        <edge id="11994462" sampledSeconds="1995.84" traveltime="21.66" overlapTraveltime="22.24" density="6.32" occupancy="1.54" waitingTime="0.00" speed="8.11" departed="0" arrived="0" entered="90" left="89" laneChangedFrom="19" laneChangedTo="19"/>
        <edge id="11994462-AddedOnRampEdge" sampledSeconds="722.62" traveltime="7.41" overlapTraveltime="8.03" density="6.68" occupancy="1.54" waitingTime="0.00" speed="8.11" departed="0" arrived="0" entered="90" left="90" laneChangedFrom="40" laneChangedTo="40"/>
        <edge id="128189136" sampledSeconds="3636.55" traveltime="15.78" overlapTraveltime="16.08" density="7.93" occupancy="1.96" waitingTime="0.00" speed="16.15" departed="0" arrived="0" entered="227" left="225" laneChangedFrom="50" laneChangedTo="50"/>
        <edge id="146909950#0" sampledSeconds="627.52" traveltime="2.94" overlapTraveltime="3.17" density="5.46" occupancy="0.51" waitingTime="0.00" speed="21.75" departed="0" arrived="0" entered="199" left="198" laneChangedFrom="4" laneChangedTo="4"/>
        <edge id="146909950#1" sampledSeconds="600.54" traveltime="5.23" overlapTraveltime="5.51" density="3.01" occupancy="0.48" waitingTime="0.00" speed="21.00" departed="0" arrived="0" entered="109" left="109" laneChangedFrom="2" laneChangedTo="2"/>
        <edge id="155345296#0" sampledSeconds="416.90" traveltime="16.36" overlapTraveltime="16.68" density="0.90" occupancy="0.22" waitingTime="0.00" speed="15.71" departed="0" arrived="0" entered="25" left="25" laneChangedFrom="1" laneChangedTo="1"/>
        <edge id="155345296#1" sampledSeconds="270.76" traveltime="3.91" overlapTraveltime="4.23" density="2.43" occupancy="0.37" waitingTime="0.00" speed="15.83" departed="0" arrived="0" entered="64" left="64" laneChangedFrom="38" laneChangedTo="38"/>
        <edge id="16403444#0" sampledSeconds="1021.49" traveltime="15.97" overlapTraveltime="16.28" density="2.24" occupancy="0.55" waitingTime="0.00" speed="15.86" departed="0" arrived="0" entered="64" left="61" laneChangedFrom="17" laneChangedTo="17"/>
        <edge id="16403444#1" sampledSeconds="1260.78" traveltime="9.32" overlapTraveltime="9.63" density="4.67" occupancy="0.76" waitingTime="0.00" speed="16.09" departed="0" arrived="0" entered="132" left="130" laneChangedFrom="15" laneChangedTo="15"/>
        <edge id="16403446" sampledSeconds="1567.28" traveltime="6.78" overlapTraveltime="7.09" density="7.92" occupancy="1.92" waitingTime="0.00" speed="16.22" departed="0" arrived="0" entered="221" left="221" laneChangedFrom="5" laneChangedTo="5"/>
        <edge id="16808971" sampledSeconds="1531.16" traveltime="21.01" overlapTraveltime="21.33" density="2.49" occupancy="1.24" waitingTime="0.00" speed="16.27" departed="0" arrived="0" entered="72" left="71" laneChangedFrom="0" laneChangedTo="0"/>
        <edge id="17516648" sampledSeconds="577.59" traveltime="5.89" overlapTraveltime="6.49" density="3.57" occupancy="0.83" waitingTime="0.00" speed="14.61" departed="0" arrived="0" entered="89" left="89" laneChangedFrom="27" laneChangedTo="27"/>
        <edge id="17550539" sampledSeconds="837.60" traveltime="6.09" overlapTraveltime="6.39" density="4.68" occupancy="2.23" waitingTime="0.00" speed="16.34" departed="0" arrived="0" entered="131" left="131" laneChangedFrom="0" laneChangedTo="0"/>
        <edge id="18702678" sampledSeconds="162.75" traveltime="3.80" overlapTraveltime="4.17" density="1.53" occupancy="0.70" waitingTime="0.00" speed="15.36" departed="0" arrived="0" entered="39" left="39" laneChangedFrom="0" laneChangedTo="0"/>
        <edge id="18702680" sampledSeconds="191.81" traveltime="4.60" overlapTraveltime="4.92" density="1.49" occupancy="0.69" waitingTime="0.00" speed="15.55" departed="0" arrived="0" entered="39" left="39" laneChangedFrom="0" laneChangedTo="0"/>
        <edge id="18702682" sampledSeconds="226.90" traveltime="5.45" overlapTraveltime="5.82" density="1.75" occupancy="0.82" waitingTime="0.00" speed="13.27" departed="0" arrived="0" entered="39" left="39" laneChangedFrom="0" laneChangedTo="0"/>
        <edge id="208416643" sampledSeconds="16.04" traveltime="0.69" overlapTraveltime="1.00" density="0.79" occupancy="0.14" waitingTime="0.00" speed="16.28" departed="0" arrived="0" entered="16" left="16" laneChangedFrom="0" laneChangedTo="0"/>
        <edge id="22941414" sampledSeconds="2738.79" traveltime="15.26" overlapTraveltime="15.56" density="6.19" occupancy="1.52" waitingTime="0.00" speed="16.12" departed="0" arrived="0" entered="177" left="176" laneChangedFrom="28" laneChangedTo="28"/>
        <edge id="22941416#0" sampledSeconds="653.11" traveltime="7.37" overlapTraveltime="7.68" density="3.10" occupancy="1.48" waitingTime="0.00" speed="15.90" departed="0" arrived="0" entered="85" left="85" laneChangedFrom="0" laneChangedTo="0"/>
        <edge id="22941416#1" sampledSeconds="1952.80" traveltime="23.02" overlapTraveltime="23.33" density="3.00" occupancy="1.48" waitingTime="0.00" speed="15.74" departed="0" arrived="0" entered="85" left="83" laneChangedFrom="0" laneChangedTo="0"/>
        <edge id="261187938" sampledSeconds="405.68" traveltime="1.86" overlapTraveltime="2.09" density="5.64" occupancy="0.63" waitingTime="0.00" speed="21.49" departed="0" arrived="0" entered="194" left="194" laneChangedFrom="2" laneChangedTo="2"/>
        <edge id="261187938-AddedOffRampEdge" sampledSeconds="937.60" traveltime="4.55" overlapTraveltime="4.83" density="5.43" occupancy="0.64" waitingTime="0.00" speed="20.87" departed="0" arrived="0" entered="194" left="194" laneChangedFrom="7" laneChangedTo="7"/>
        <edge id="261583463" sampledSeconds="252.19" traveltime="12.28" overlapTraveltime="12.61" density="0.70" occupancy="0.35" waitingTime="0.00" speed="16.22" departed="0" arrived="0" entered="20" left="20" laneChangedFrom="0" laneChangedTo="0"/>
        <edge id="261583464" sampledSeconds="1018.57" traveltime="10.77" overlapTraveltime="11.08" density="3.21" occupancy="1.58" waitingTime="0.00" speed="16.34" departed="0" arrived="0" entered="92" left="91" laneChangedFrom="0" laneChangedTo="0"/>
        <edge id="26378010" sampledSeconds="524.54" traveltime="5.39" overlapTraveltime="5.70" density="3.39" occupancy="1.61" waitingTime="0.00" speed="15.97" departed="0" arrived="0" entered="92" left="92" laneChangedFrom="0" laneChangedTo="0"/>
        <edge id="26380527" sampledSeconds="1175.54" traveltime="9.74" overlapTraveltime="10.05" density="2.64" occupancy="0.64" waitingTime="0.00" speed="25.11" departed="0" arrived="0" entered="117" left="117" laneChangedFrom="4" laneChangedTo="4"/>
        <edge id="273755091#2" sampledSeconds="181.30" traveltime="0.65" overlapTraveltime="1.02" density="17.01" occupancy="1.79" waitingTime="21.50" speed="10.79" departed="0" arrived="0" entered="179" left="178" laneChangedFrom="1" laneChangedTo="1"/>
        <edge id="28001589" sampledSeconds="475.88" traveltime="3.87" overlapTraveltime="4.17" density="4.14" occupancy="0.97" waitingTime="0.00" speed="16.52" departed="0" arrived="0" entered="114" left="114" laneChangedFrom="0" laneChangedTo="0"/>
        <edge id="28458821" sampledSeconds="1926.58" traveltime="23.07" overlapTraveltime="23.39" density="2.94" occupancy="1.45" waitingTime="0.00" speed="15.75" departed="0" arrived="0" entered="83" left="82" laneChangedFrom="0" laneChangedTo="0"/>
        <edge id="28458824" sampledSeconds="2391.68" traveltime="26.65" overlapTraveltime="26.95" density="3.07" occupancy="1.53" waitingTime="0.00" speed="16.24" departed="0" arrived="0" entered="91" left="88" laneChangedFrom="0" laneChangedTo="0"/>
        <edge id="28458828" sampledSeconds="1631.43" traveltime="4.95" overlapTraveltime="5.26" density="11.29" occupancy="1.07" waitingTime="0.00" speed="16.21" departed="0" arrived="0" entered="310" left="310" laneChangedFrom="165" laneChangedTo="165"/>
        <edge id="28458895" sampledSeconds="1602.41" traveltime="4.97" overlapTraveltime="5.20" density="8.86" occupancy="1.06" waitingTime="0.00" speed="20.27" departed="0" arrived="0" entered="308" left="308" laneChangedFrom="27" laneChangedTo="27"/>
        <edge id="28531510" sampledSeconds="171.08" traveltime="2.86" overlapTraveltime="3.17" density="2.07" occupancy="0.47" waitingTime="0.00" speed="16.07" departed="0" arrived="0" entered="54" left="54" laneChangedFrom="20" laneChangedTo="20"/>
        <edge id="28531510.48" sampledSeconds="429.51" traveltime="7.64" overlapTraveltime="7.95" density="1.94" occupancy="0.94" waitingTime="0.00" speed="16.10" departed="0" arrived="0" entered="54" left="54" laneChangedFrom="0" laneChangedTo="0"/>
        <edge id="29038677" sampledSeconds="772.86" traveltime="15.98" overlapTraveltime="16.29" density="1.67" occupancy="0.82" waitingTime="0.00" speed="16.12" departed="0" arrived="0" entered="49" left="47" laneChangedFrom="0" laneChangedTo="0"/>
        <edge id="29332864" sampledSeconds="2092.23" traveltime="21.98" overlapTraveltime="22.29" density="3.22" occupancy="1.61" waitingTime="0.00" speed="16.42" departed="0" arrived="0" entered="94" left="93" laneChangedFrom="0" laneChangedTo="0"/>
        <edge id="293596618#1-AddedOffRampEdge" sampledSeconds="2284.36" traveltime="22.57" overlapTraveltime="22.80" density="2.61" occupancy="0.32" waitingTime="0.00" speed="21.54" departed="194" arrived="0" entered="0" left="194" laneChangedFrom="20" laneChangedTo="20"/>
        <edge id="30414032" sampledSeconds="4671.29" traveltime="18.57" overlapTraveltime="18.88" density="8.67" occupancy="4.27" waitingTime="0.00" speed="16.12" departed="0" arrived="0" entered="249" left="247" laneChangedFrom="0" laneChangedTo="0"/>
        <edge id="319144060" sampledSeconds="3099.04" traveltime="16.68" overlapTraveltime="16.99" density="6.36" occupancy="1.04" waitingTime="0.00" speed="16.22" departed="333" arrived="0" entered="0" left="333" laneChangedFrom="22" laneChangedTo="22"/>
        <edge id="328393125" sampledSeconds="2983.95" traveltime="11.24" overlapTraveltime="11.43" density="5.38" occupancy="0.66" waitingTime="0.00" speed="27.42" departed="0" arrived="0" entered="263" left="260" laneChangedFrom="77" laneChangedTo="77"/>
        <edge id="328393125-AddedOnRampEdge" sampledSeconds="1201.44" traveltime="4.38" overlapTraveltime="4.57" density="6.61" occupancy="0.63" waitingTime="0.00" speed="23.19" departed="0" arrived="0" entered="263" left="263" laneChangedFrom="47" laneChangedTo="47"/>
        <edge id="332655578" sampledSeconds="3621.32" traveltime="40.12" overlapTraveltime="40.69" density="6.16" occupancy="1.52" waitingTime="0.00" speed="8.15" departed="0" arrived="0" entered="89" left="89" laneChangedFrom="118" laneChangedTo="118"/>
        <edge id="332655581" sampledSeconds="854.87" traveltime="7.52" overlapTraveltime="7.77" density="4.04" occupancy="1.91" waitingTime="0.00" speed="15.76" departed="0" arrived="0" entered="110" left="110" laneChangedFrom="0" laneChangedTo="0"/>
        <edge id="345616204#1" sampledSeconds="4318.92" traveltime="12.05" overlapTraveltime="12.23" density="7.26" occupancy="0.90" waitingTime="0.00" speed="27.41" departed="0" arrived="0" entered="353" left="353" laneChangedFrom="69" laneChangedTo="69"/>
        <edge id="345616204#1-AddedOnRampEdge" sampledSeconds="1344.42" traveltime="3.62" overlapTraveltime="3.81" density="8.12" occupancy="0.77" waitingTime="0.00" speed="25.48" departed="0" arrived="0" entered="353" left="353" laneChangedFrom="117" laneChangedTo="117"/>
        <edge id="345616204#1.334" sampledSeconds="4178.24" traveltime="11.67" overlapTraveltime="11.86" density="7.22" occupancy="0.89" waitingTime="0.00" speed="27.56" departed="0" arrived="0" entered="353" left="352" laneChangedFrom="44" laneChangedTo="44"/>
        <edge id="345616204#1.655" sampledSeconds="4867.90" traveltime="13.76" overlapTraveltime="13.94" density="7.13" occupancy="0.89" waitingTime="0.00" speed="27.57" departed="0" arrived="349" entered="352" left="0" laneChangedFrom="9" laneChangedTo="9"/>
        <edge id="360361373" sampledSeconds="4987.97" traveltime="17.09" overlapTraveltime="17.28" density="6.04" occupancy="0.75" waitingTime="0.00" speed="26.86" departed="0" arrived="0" entered="290" left="288" laneChangedFrom="54" laneChangedTo="54"/>
        <edge id="360361373-AddedOffRampEdge" sampledSeconds="1008.90" traveltime="3.46" overlapTraveltime="3.64" density="6.01" occupancy="0.57" waitingTime="0.00" speed="26.97" departed="0" arrived="0" entered="277" left="277" laneChangedFrom="61" laneChangedTo="61"/>
        <edge id="360361373-AddedOnRampEdge" sampledSeconds="1132.79" traveltime="3.72" overlapTraveltime="3.91" density="6.84" occupancy="0.65" waitingTime="0.00" speed="24.85" departed="0" arrived="0" entered="290" left="290" laneChangedFrom="106" laneChangedTo="106"/>
        <edge id="360361373.1498" sampledSeconds="4248.78" traveltime="14.88" overlapTraveltime="15.07" density="5.88" occupancy="0.73" waitingTime="0.00" speed="26.96" departed="0" arrived="0" entered="282" left="282" laneChangedFrom="26" laneChangedTo="26"/>
        <edge id="360361373.1899" sampledSeconds="3336.76" traveltime="11.70" overlapTraveltime="11.88" density="5.88" occupancy="0.73" waitingTime="0.00" speed="26.93" departed="0" arrived="0" entered="282" left="279" laneChangedFrom="30" laneChangedTo="30"/>
        <edge id="360361373.2215" sampledSeconds="4455.49" traveltime="15.85" overlapTraveltime="16.04" density="5.79" occupancy="0.72" waitingTime="0.00" speed="26.98" departed="0" arrived="0" entered="279" left="277" laneChangedFrom="38" laneChangedTo="38"/>
        <edge id="360361373.2643" sampledSeconds="4269.89" traveltime="15.23" overlapTraveltime="15.42" density="5.77" occupancy="0.71" waitingTime="0.00" speed="26.99" departed="0" arrived="0" entered="277" left="277" laneChangedFrom="49" laneChangedTo="49"/>
        <edge id="360361373.463" sampledSeconds="5585.09" traveltime="19.24" overlapTraveltime="19.42" density="5.98" occupancy="0.74" waitingTime="0.00" speed="26.96" departed="0" arrived="0" entered="288" left="286" laneChangedFrom="76" laneChangedTo="76"/>
        <edge id="360361373.981" sampledSeconds="5502.98" traveltime="19.14" overlapTraveltime="19.33" density="5.93" occupancy="0.74" waitingTime="0.00" speed="26.95" departed="0" arrived="0" entered="286" left="282" laneChangedFrom="46" laneChangedTo="46"/>
        <edge id="4074534" sampledSeconds="330.64" traveltime="4.85" overlapTraveltime="5.17" density="2.38" occupancy="0.56" waitingTime="0.00" speed="15.89" departed="0" arrived="0" entered="64" left="64" laneChangedFrom="9" laneChangedTo="9"/>
        <edge id="41517592" sampledSeconds="873.64" traveltime="9.63" overlapTraveltime="9.82" density="2.74" occupancy="0.66" waitingTime="0.00" speed="18.54" departed="0" arrived="0" entered="89" left="89" laneChangedFrom="78" laneChangedTo="78"/>
        <edge id="428960734" sampledSeconds="6738.90" traveltime="21.84" overlapTraveltime="22.07" density="7.88" occupancy="0.98" waitingTime="0.00" speed="21.77" departed="0" arrived="303" entered="307" left="0" laneChangedFrom="41" laneChangedTo="41"/>
        <edge id="428960735" sampledSeconds="921.81" traveltime="2.77" overlapTraveltime="3.00" density="8.51" occupancy="0.99" waitingTime="0.00" speed="21.72" departed="0" arrived="0" entered="308" left="307" laneChangedFrom="7" laneChangedTo="7"/>
        <edge id="429432523" sampledSeconds="2189.72" traveltime="6.81" overlapTraveltime="7.11" density="10.98" occupancy="1.32" waitingTime="0.00" speed="16.29" departed="0" arrived="0" entered="309" left="308" laneChangedFrom="45" laneChangedTo="45"/>
        <edge id="429432524" sampledSeconds="1737.68" traveltime="7.53" overlapTraveltime="7.84" density="5.08" occupancy="0.82" waitingTime="0.00" speed="24.92" departed="0" arrived="0" entered="222" left="220" laneChangedFrom="38" laneChangedTo="38"/>
        <edge id="429432526" sampledSeconds="4764.33" traveltime="28.10" overlapTraveltime="28.41" density="5.75" occupancy="1.43" waitingTime="0.00" speed="16.39" departed="0" arrived="0" entered="171" left="164" laneChangedFrom="31" laneChangedTo="31"/>
        <edge id="429432925" sampledSeconds="145.46" traveltime="0.16" overlapTraveltime="0.47" density="30.61" occupancy="1.32" waitingTime="0.00" speed="16.24" departed="0" arrived="0" entered="310" left="310" laneChangedFrom="1" laneChangedTo="1"/>
        <edge id="431199180" sampledSeconds="580.10" traveltime="3.06" overlapTraveltime="3.30" density="5.28" occupancy="0.61" waitingTime="0.00" speed="20.02" departed="0" arrived="0" entered="176" left="176" laneChangedFrom="9" laneChangedTo="9"/>
        <edge id="4402237" sampledSeconds="297.75" traveltime="4.34" overlapTraveltime="4.65" density="2.41" occupancy="0.37" waitingTime="0.00" speed="15.83" departed="0" arrived="0" entered="64" left="64" laneChangedFrom="8" laneChangedTo="8"/>
        <edge id="4402297" sampledSeconds="2736.27" traveltime="13.02" overlapTraveltime="13.21" density="4.24" occupancy="0.70" waitingTime="0.00" speed="27.55" departed="0" arrived="0" entered="208" left="206" laneChangedFrom="26" laneChangedTo="26"/>
        <edge id="4404096" sampledSeconds="958.81" traveltime="13.39" overlapTraveltime="13.70" density="2.43" occupancy="0.40" waitingTime="0.00" speed="16.36" departed="0" arrived="0" entered="70" left="70" laneChangedFrom="41" laneChangedTo="41"/>
        <edge id="4414080#0" sampledSeconds="2655.49" traveltime="9.37" overlapTraveltime="9.59" density="5.91" occupancy="0.58" waitingTime="0.00" speed="26.56" departed="0" arrived="0" entered="277" left="277" laneChangedFrom="35" laneChangedTo="35"/>
        <edge id="4414080#0.187" sampledSeconds="2501.17" traveltime="17.31" overlapTraveltime="17.49" density="2.96" occupancy="0.49" waitingTime="0.00" speed="27.13" departed="0" arrived="0" entered="143" left="143" laneChangedFrom="40" laneChangedTo="40"/>
        <edge id="4414080#0.756" sampledSeconds="559.28" traveltime="2.02" overlapTraveltime="2.22" density="6.49" occupancy="0.74" waitingTime="0.00" speed="23.86" departed="0" arrived="0" entered="253" left="251" laneChangedFrom="117" laneChangedTo="117"/>
        <edge id="4414080#0.756.47" sampledSeconds="556.35" traveltime="2.04" overlapTraveltime="2.23" density="5.83" occupancy="0.89" waitingTime="0.00" speed="26.09" departed="0" arrived="0" entered="251" left="250" laneChangedFrom="10" laneChangedTo="10"/>
        <edge id="4414080#1-AddedOnRampEdge" sampledSeconds="4300.54" traveltime="12.83" overlapTraveltime="13.02" density="6.96" occupancy="0.86" waitingTime="0.00" speed="26.75" departed="0" arrived="0" entered="332" left="327" laneChangedFrom="149" laneChangedTo="149"/>
        <edge id="4414080#1-AddedOnRampEdge.343" sampledSeconds="4042.97" traveltime="12.19" overlapTraveltime="12.38" density="6.77" occupancy="0.84" waitingTime="0.00" speed="27.21" departed="0" arrived="0" entered="327" left="326" laneChangedFrom="104" laneChangedTo="104"/>
        <edge id="4414080#1-AddedOnRampEdge.675" sampledSeconds="2878.00" traveltime="8.66" overlapTraveltime="8.84" density="6.79" occupancy="0.83" waitingTime="0.00" speed="27.20" departed="0" arrived="0" entered="326" left="324" laneChangedFrom="32" laneChangedTo="32"/>
        <edge id="457424511#3" sampledSeconds="3549.00" traveltime="25.05" overlapTraveltime="25.36" density="4.75" occupancy="0.79" waitingTime="0.00" speed="16.55" departed="274" arrived="0" entered="0" left="274" laneChangedFrom="126" laneChangedTo="126"/>
        <edge id="457424511#3.414" sampledSeconds="6183.95" traveltime="22.40" overlapTraveltime="22.74" density="9.37" occupancy="1.56" waitingTime="0.00" speed="16.34" departed="0" arrived="0" entered="274" left="271" laneChangedFrom="136" laneChangedTo="136"/>
        <edge id="48290550" sampledSeconds="11499.47" traveltime="27.06" overlapTraveltime="27.24" density="8.62" occupancy="1.07" waitingTime="0.00" speed="27.41" departed="0" arrived="0" entered="424" left="421" laneChangedFrom="170" laneChangedTo="170"/>
        <edge id="48290550-AddedOffRampEdge" sampledSeconds="1816.90" traveltime="4.29" overlapTraveltime="4.53" density="9.18" occupancy="0.73" waitingTime="0.00" speed="25.37" departed="0" arrived="0" entered="401" left="400" laneChangedFrom="146" laneChangedTo="146"/>
        <edge id="48290550.1176" sampledSeconds="4729.23" traveltime="11.10" overlapTraveltime="11.29" density="8.63" occupancy="1.07" waitingTime="0.00" speed="27.41" departed="0" arrived="0" entered="421" left="418" laneChangedFrom="56" laneChangedTo="56"/>
        <edge id="48290550.1480" sampledSeconds="6121.39" traveltime="14.53" overlapTraveltime="14.71" density="8.54" occupancy="1.06" waitingTime="0.00" speed="27.42" departed="0" arrived="0" entered="418" left="413" laneChangedFrom="55" laneChangedTo="55"/>
        <edge id="48290550.1878" sampledSeconds="7803.05" traveltime="18.73" overlapTraveltime="18.92" density="8.44" occupancy="1.05" waitingTime="0.00" speed="27.43" departed="0" arrived="0" entered="413" left="412" laneChangedFrom="76" laneChangedTo="76"/>
        <edge id="48290550.2391" sampledSeconds="7771.61" traveltime="18.70" overlapTraveltime="18.89" density="8.42" occupancy="1.05" waitingTime="0.00" speed="27.41" departed="0" arrived="0" entered="412" left="409" laneChangedFrom="70" laneChangedTo="70"/>
        <edge id="48290550.2904" sampledSeconds="5212.50" traveltime="12.65" overlapTraveltime="12.83" density="8.40" occupancy="1.04" waitingTime="0.00" speed="27.26" departed="0" arrived="0" entered="409" left="405" laneChangedFrom="111" laneChangedTo="111"/>
        <edge id="48290550.3266" sampledSeconds="1398.78" traveltime="3.29" overlapTraveltime="3.47" density="8.74" occupancy="0.83" waitingTime="0.00" speed="27.07" departed="0" arrived="0" entered="405" left="402" laneChangedFrom="66" laneChangedTo="66"/>
        <edge id="48290550.745" sampledSeconds="6697.04" traveltime="15.72" overlapTraveltime="15.91" density="8.63" occupancy="1.07" waitingTime="0.00" speed="27.41" departed="0" arrived="0" entered="421" left="421" laneChangedFrom="93" laneChangedTo="93"/>
        <edge id="48290551#0" sampledSeconds="1614.07" traveltime="19.44" overlapTraveltime="19.75" density="2.88" occupancy="0.71" waitingTime="0.00" speed="16.02" departed="0" arrived="0" entered="82" left="81" laneChangedFrom="76" laneChangedTo="76"/>
        <edge id="48290551#1" sampledSeconds="1835.96" traveltime="7.73" overlapTraveltime="8.04" density="8.23" occupancy="1.33" waitingTime="0.00" speed="16.03" departed="0" arrived="0" entered="229" left="227" laneChangedFrom="79" laneChangedTo="79"/>
        <edge id="48290552" sampledSeconds="1088.60" traveltime="8.84" overlapTraveltime="9.45" density="4.50" occupancy="2.14" waitingTime="0.00" speed="14.74" departed="0" arrived="0" entered="116" left="115" laneChangedFrom="0" laneChangedTo="0"/>
        <edge id="48516115" sampledSeconds="2165.56" traveltime="10.62" overlapTraveltime="10.85" density="5.21" occupancy="0.51" waitingTime="0.00" speed="21.74" departed="0" arrived="0" entered="200" left="199" laneChangedFrom="17" laneChangedTo="17"/>
        <edge id="48516117" sampledSeconds="1786.12" traveltime="17.80" overlapTraveltime="18.03" density="2.55" occupancy="0.31" waitingTime="0.00" speed="21.88" departed="201" arrived="0" entered="0" left="201" laneChangedFrom="42" laneChangedTo="42"/>
        <edge id="48516117.389" sampledSeconds="4920.58" traveltime="24.29" overlapTraveltime="24.52" density="5.17" occupancy="0.64" waitingTime="0.00" speed="21.75" departed="0" arrived="0" entered="201" left="200" laneChangedFrom="155" laneChangedTo="155"/>
        <edge id="489961226" sampledSeconds="588.62" traveltime="4.72" overlapTraveltime="5.03" density="4.35" occupancy="1.02" waitingTime="0.00" speed="15.95" departed="0" arrived="0" entered="117" left="117" laneChangedFrom="3" laneChangedTo="3"/>
        <edge id="491989399#0" sampledSeconds="1051.75" traveltime="4.46" overlapTraveltime="4.69" density="6.49" occupancy="1.03" waitingTime="0.00" speed="20.26" departed="0" arrived="0" entered="225" left="224" laneChangedFrom="22" laneChangedTo="22"/>
        <edge id="491989399#1-AddedOnRampEdge" sampledSeconds="7789.27" traveltime="24.48" overlapTraveltime="24.71" density="8.18" occupancy="1.02" waitingTime="0.00" speed="21.62" departed="0" arrived="0" entered="317" left="313" laneChangedFrom="230" laneChangedTo="230"/>
        <edge id="491989399#1-AddedOnRampEdge.533" sampledSeconds="5717.37" traveltime="18.11" overlapTraveltime="18.34" density="8.11" occupancy="1.01" waitingTime="0.00" speed="21.64" departed="0" arrived="0" entered="313" left="311" laneChangedFrom="59" laneChangedTo="59"/>
        <edge id="491989399#1-AddedOnRampEdge.925" sampledSeconds="5658.52" traveltime="18.21" overlapTraveltime="18.44" density="7.99" occupancy="0.99" waitingTime="0.00" speed="21.62" departed="0" arrived="306" entered="311" left="0" laneChangedFrom="22" laneChangedTo="22"/>
        <edge id="492226824" sampledSeconds="455.26" traveltime="4.66" overlapTraveltime="4.90" density="2.79" occupancy="1.32" waitingTime="0.00" speed="19.53" departed="0" arrived="0" entered="93" left="93" laneChangedFrom="0" laneChangedTo="0"/>
        <edge id="492226827" sampledSeconds="1734.45" traveltime="19.19" overlapTraveltime="19.49" density="3.03" occupancy="0.75" waitingTime="0.00" speed="16.55" departed="0" arrived="0" entered="89" left="89" laneChangedFrom="33" laneChangedTo="33"/>
        <edge id="492226831" sampledSeconds="2032.27" traveltime="14.97" overlapTraveltime="15.28" density="4.73" occupancy="1.16" waitingTime="0.00" speed="15.94" departed="0" arrived="0" entered="134" left="132" laneChangedFrom="19" laneChangedTo="19"/>
        <edge id="492229071" sampledSeconds="1014.68" traveltime="7.55" overlapTraveltime="7.75" density="3.33" occupancy="1.61" waitingTime="0.00" speed="22.47" departed="0" arrived="0" entered="131" left="131" laneChangedFrom="0" laneChangedTo="0"/>