<?xml version="1.0" encoding="UTF-8"?>

<!-- generated on 11/05/19 11:04:07 by Eclipse SUMO Version 1.3.1
<configuration xmlns:xsi="http://www.w3.org/2001/XMLSchema-instance" xsi:noNamespaceSchemaLocation="http://sumo.dlr.de/xsd/sumoConfiguration.xsd">

    <input>
        <net-file value="M50network.net.xml"/>
        <additional-files value="vtypes.add.xml,M50_routes.rou.xml,M50_emitters.emi.xml,M50_detectors.poi.xml,outputs.add.xml"/>
    </input>

    <output>
        <tripinfo-output value="output/tripinfo.out.xml"/>
    </output>

    <time>
        <begin value="0"/>
        <end value="86400"/>
        <step-length value="0.5"/>
    </time>

    <processing>
        <collision.mingap-factor value="0"/>
        <emergencydecel.warning-threshold value="5"/>
    </processing>

    <report>
        <log value="output/log.xml"/>
    </report>

    <gui_only>
        <tracker-interval value="0.5"/>
    </gui_only>

</configuration>
-->

<meandata xmlns:xsi="http://www.w3.org/2001/XMLSchema-instance" xsi:noNamespaceSchemaLocation="http://sumo.dlr.de/xsd/meandata_file.xsd">
    <interval begin="0.00" end="1800.00" id="1">
        <edge id="106130759" sampledSeconds="6516.69" traveltime="29.03" overlapTraveltime="29.22" density="4.57" occupancy="0.57" waitingTime="0.00" speed="27.28" departed="449" arrived="0" entered="0" left="448" laneChangedFrom="209" laneChangedTo="209"/>
        <edge id="106130759-AddedOffRampEdge" sampledSeconds="2186.87" traveltime="4.83" overlapTraveltime="5.06" density="9.75" occupancy="0.94" waitingTime="0.00" speed="25.62" departed="0" arrived="0" entered="432" left="432" laneChangedFrom="43" laneChangedTo="43"/>
        <edge id="106130759.1186" sampledSeconds="7296.58" traveltime="16.28" overlapTraveltime="16.47" density="9.13" occupancy="1.14" waitingTime="0.00" speed="27.26" departed="0" arrived="0" entered="446" left="439" laneChangedFrom="59" laneChangedTo="59"/>
        <edge id="106130759.1630" sampledSeconds="3914.41" traveltime="8.75" overlapTraveltime="8.94" density="9.14" occupancy="1.13" waitingTime="0.00" speed="27.21" departed="0" arrived="0" entered="439" left="436" laneChangedFrom="54" laneChangedTo="54"/>
        <edge id="106130759.1868" sampledSeconds="3755.72" traveltime="8.45" overlapTraveltime="8.63" density="9.08" occupancy="1.12" waitingTime="0.00" speed="27.21" departed="0" arrived="0" entered="436" left="435" laneChangedFrom="31" laneChangedTo="31"/>
        <edge id="106130759.2098" sampledSeconds="5498.34" traveltime="12.48" overlapTraveltime="12.66" density="9.02" occupancy="1.12" waitingTime="0.00" speed="27.15" departed="0" arrived="0" entered="435" left="433" laneChangedFrom="59" laneChangedTo="59"/>
        <edge id="106130759.2437" sampledSeconds="2494.85" traveltime="5.59" overlapTraveltime="5.77" density="9.22" occupancy="1.13" waitingTime="0.00" speed="26.92" departed="0" arrived="0" entered="433" left="432" laneChangedFrom="109" laneChangedTo="109"/>
        <edge id="106130759.791" sampledSeconds="6539.57" traveltime="14.46" overlapTraveltime="14.65" density="9.22" occupancy="1.15" waitingTime="0.00" speed="27.25" departed="0" arrived="0" entered="448" left="446" laneChangedFrom="135" laneChangedTo="135"/>
        <edge id="11955830" sampledSeconds="3677.72" traveltime="16.63" overlapTraveltime="16.94" density="7.57" occupancy="1.24" waitingTime="0.00" speed="16.23" departed="0" arrived="0" entered="218" left="216" laneChangedFrom="54" laneChangedTo="54"/>
        <edge id="11955831" sampledSeconds="1627.38" traveltime="6.83" overlapTraveltime="7.14" density="8.12" occupancy="0.98" waitingTime="0.00" speed="16.30" departed="0" arrived="0" entered="230" left="227" laneChangedFrom="37" laneChangedTo="37"/>
        <edge id="11959492" sampledSeconds="4238.31" traveltime="36.87" overlapTraveltime="37.46" density="8.17" occupancy="4.02" waitingTime="0.00" speed="7.82" departed="0" arrived="0" entered="114" left="111" laneChangedFrom="0" laneChangedTo="0"/>
        <edge id="11994462" sampledSeconds="2031.75" traveltime="22.11" overlapTraveltime="22.70" density="6.44" occupancy="1.57" waitingTime="0.00" speed="7.95" departed="0" arrived="0" entered="90" left="89" laneChangedFrom="12" laneChangedTo="12"/>
        <edge id="11994462-AddedOnRampEdge" sampledSeconds="738.04" traveltime="7.57" overlapTraveltime="8.20" density="6.82" occupancy="1.58" waitingTime="0.00" speed="7.94" departed="0" arrived="0" entered="90" left="90" laneChangedFrom="58" laneChangedTo="58"/>
        <edge id="128189136" sampledSeconds="3680.16" traveltime="15.97" overlapTraveltime="16.28" density="8.02" occupancy="1.99" waitingTime="0.00" speed="15.96" departed="0" arrived="0" entered="229" left="225" laneChangedFrom="48" laneChangedTo="48"/>
        <edge id="146909950#0" sampledSeconds="631.27" traveltime="2.96" overlapTraveltime="3.19" density="5.49" occupancy="0.51" waitingTime="0.00" speed="21.61" departed="0" arrived="0" entered="198" left="198" laneChangedFrom="1" laneChangedTo="1"/>
        <edge id="146909950#1" sampledSeconds="608.28" traveltime="5.29" overlapTraveltime="5.58" density="3.05" occupancy="0.48" waitingTime="0.00" speed="20.74" departed="0" arrived="0" entered="109" left="109" laneChangedFrom="0" laneChangedTo="0"/>
        <edge id="155345296#0" sampledSeconds="420.02" traveltime="16.48" overlapTraveltime="16.80" density="0.91" occupancy="0.22" waitingTime="0.00" speed="15.60" departed="0" arrived="0" entered="25" left="25" laneChangedFrom="1" laneChangedTo="1"/>
        <edge id="155345296#1" sampledSeconds="273.70" traveltime="3.96" overlapTraveltime="4.28" density="2.45" occupancy="0.38" waitingTime="0.00" speed="15.66" departed="0" arrived="0" entered="64" left="64" laneChangedFrom="40" laneChangedTo="40"/>
        <edge id="16403444#0" sampledSeconds="1004.32" traveltime="16.04" overlapTraveltime="16.36" density="2.20" occupancy="0.54" waitingTime="0.00" speed="15.79" departed="0" arrived="0" entered="62" left="61" laneChangedFrom="17" laneChangedTo="17"/>
        <edge id="16403444#1" sampledSeconds="1266.51" traveltime="9.36" overlapTraveltime="9.67" density="4.69" occupancy="0.76" waitingTime="0.00" speed="16.03" departed="0" arrived="0" entered="132" left="130" laneChangedFrom="18" laneChangedTo="18"/>
        <edge id="16403446" sampledSeconds="1575.93" traveltime="6.80" overlapTraveltime="7.11" density="7.96" occupancy="1.93" waitingTime="0.00" speed="16.18" departed="0" arrived="0" entered="223" left="221" laneChangedFrom="5" laneChangedTo="5"/>
        <edge id="16808971" sampledSeconds="1539.73" traveltime="21.12" overlapTraveltime="21.44" density="2.50" occupancy="1.25" waitingTime="0.00" speed="16.19" departed="0" arrived="0" entered="72" left="71" laneChangedFrom="0" laneChangedTo="0"/>
        <edge id="17516648" sampledSeconds="583.04" traveltime="5.94" overlapTraveltime="6.55" density="3.60" occupancy="0.84" waitingTime="0.00" speed="14.48" departed="0" arrived="0" entered="89" left="89" laneChangedFrom="16" laneChangedTo="16"/>
        <edge id="17550539" sampledSeconds="856.62" traveltime="6.23" overlapTraveltime="6.54" density="4.78" occupancy="2.28" waitingTime="0.00" speed="15.98" departed="0" arrived="0" entered="131" left="131" laneChangedFrom="0" laneChangedTo="0"/>
        <edge id="18702678" sampledSeconds="164.25" traveltime="3.83" overlapTraveltime="4.21" density="1.54" occupancy="0.71" waitingTime="0.00" speed="15.22" departed="0" arrived="0" entered="39" left="39" laneChangedFrom="0" laneChangedTo="0"/>
        <edge id="18702680" sampledSeconds="194.28" traveltime="4.66" overlapTraveltime="4.98" density="1.51" occupancy="0.70" waitingTime="0.00" speed="15.36" departed="0" arrived="0" entered="39" left="39" laneChangedFrom="0" laneChangedTo="0"/>
        <edge id="18702682" sampledSeconds="230.32" traveltime="5.53" overlapTraveltime="5.91" density="1.77" occupancy="0.83" waitingTime="0.00" speed="13.07" departed="0" arrived="0" entered="39" left="39" laneChangedFrom="0" laneChangedTo="0"/>
        <edge id="208416643" sampledSeconds="16.05" traveltime="0.70" overlapTraveltime="1.00" density="0.79" occupancy="0.14" waitingTime="0.00" speed="16.27" departed="0" arrived="0" entered="16" left="16" laneChangedFrom="0" laneChangedTo="0"/>
        <edge id="22941414" sampledSeconds="2769.40" traveltime="15.43" overlapTraveltime="15.74" density="6.26" occupancy="1.53" waitingTime="0.00" speed="15.93" departed="0" arrived="0" entered="176" left="176" laneChangedFrom="37" laneChangedTo="37"/>
        <edge id="22941416#0" sampledSeconds="663.40" traveltime="7.48" overlapTraveltime="7.80" density="3.14" occupancy="1.51" waitingTime="0.00" speed="15.66" departed="0" arrived="0" entered="85" left="85" laneChangedFrom="0" laneChangedTo="0"/>
        <edge id="22941416#1" sampledSeconds="1996.07" traveltime="23.40" overlapTraveltime="23.72" density="3.06" occupancy="1.51" waitingTime="0.00" speed="15.48" departed="0" arrived="0" entered="85" left="83" laneChangedFrom="0" laneChangedTo="0"/>
        <edge id="261187938" sampledSeconds="408.78" traveltime="1.87" overlapTraveltime="2.11" density="5.68" occupancy="0.63" waitingTime="0.00" speed="21.34" departed="0" arrived="0" entered="194" left="194" laneChangedFrom="3" laneChangedTo="3"/>
        <edge id="261187938-AddedOffRampEdge" sampledSeconds="941.73" traveltime="4.58" overlapTraveltime="4.87" density="5.46" occupancy="0.65" waitingTime="0.00" speed="20.72" departed="0" arrived="0" entered="194" left="193" laneChangedFrom="6" laneChangedTo="6"/>
        <edge id="261583463" sampledSeconds="251.73" traveltime="12.27" overlapTraveltime="12.59" density="0.70" occupancy="0.35" waitingTime="0.00" speed="16.24" departed="0" arrived="0" entered="20" left="20" laneChangedFrom="0" laneChangedTo="0"/>
        <edge id="261583464" sampledSeconds="1012.53" traveltime="10.88" overlapTraveltime="11.20" density="3.19" occupancy="1.57" waitingTime="0.00" speed="16.18" departed="0" arrived="0" entered="91" left="90" laneChangedFrom="0" laneChangedTo="0"/>
        <edge id="26378010" sampledSeconds="520.57" traveltime="5.41" overlapTraveltime="5.72" density="3.36" occupancy="1.60" waitingTime="0.00" speed="15.92" departed="0" arrived="0" entered="91" left="91" laneChangedFrom="0" laneChangedTo="0"/>
        <edge id="26380527" sampledSeconds="1185.12" traveltime="9.82" overlapTraveltime="10.13" density="2.66" occupancy="0.65" waitingTime="0.00" speed="24.91" departed="0" arrived="0" entered="117" left="117" laneChangedFrom="4" laneChangedTo="4"/>
        <edge id="273755091#2" sampledSeconds="181.45" traveltime="0.63" overlapTraveltime="1.01" density="17.03" occupancy="1.80" waitingTime="24.00" speed="10.83" departed="0" arrived="0" entered="179" left="179" laneChangedFrom="0" laneChangedTo="0"/>
        <edge id="28001589" sampledSeconds="478.43" traveltime="3.89" overlapTraveltime="4.20" density="4.16" occupancy="0.98" waitingTime="0.00" speed="16.43" departed="0" arrived="0" entered="114" left="114" laneChangedFrom="0" laneChangedTo="0"/>
        <edge id="28458821" sampledSeconds="1943.47" traveltime="23.19" overlapTraveltime="23.51" density="2.97" occupancy="1.47" waitingTime="0.00" speed="15.67" departed="0" arrived="0" entered="83" left="82" laneChangedFrom="0" laneChangedTo="0"/>
        <edge id="28458824" sampledSeconds="2400.58" traveltime="26.88" overlapTraveltime="27.19" density="3.08" occupancy="1.54" waitingTime="0.00" speed="16.09" departed="0" arrived="0" entered="90" left="88" laneChangedFrom="0" laneChangedTo="0"/>
        <edge id="28458828" sampledSeconds="1636.58" traveltime="4.99" overlapTraveltime="5.30" density="11.32" occupancy="1.07" waitingTime="0.00" speed="16.09" departed="0" arrived="0" entered="309" left="308" laneChangedFrom="162" laneChangedTo="162"/>
        <edge id="28458895" sampledSeconds="1611.04" traveltime="5.00" overlapTraveltime="5.23" density="8.91" occupancy="1.06" waitingTime="0.00" speed="20.16" departed="0" arrived="0" entered="308" left="308" laneChangedFrom="19" laneChangedTo="19"/>
        <edge id="28531510" sampledSeconds="172.36" traveltime="2.88" overlapTraveltime="3.19" density="2.09" occupancy="0.47" waitingTime="0.00" speed="15.96" departed="0" arrived="0" entered="54" left="54" laneChangedFrom="20" laneChangedTo="20"/>
        <edge id="28531510.48" sampledSeconds="430.90" traveltime="7.67" overlapTraveltime="7.98" density="1.95" occupancy="0.94" waitingTime="0.00" speed="16.04" departed="0" arrived="0" entered="54" left="54" laneChangedFrom="0" laneChangedTo="0"/>
        <edge id="29038677" sampledSeconds="755.73" traveltime="16.06" overlapTraveltime="16.37" density="1.63" occupancy="0.80" waitingTime="0.00" speed="16.05" departed="0" arrived="0" entered="47" left="46" laneChangedFrom="0" laneChangedTo="0"/>
        <edge id="29332864" sampledSeconds="2092.48" traveltime="21.96" overlapTraveltime="22.26" density="3.22" occupancy="1.61" waitingTime="0.00" speed="16.44" departed="0" arrived="0" entered="94" left="94" laneChangedFrom="0" laneChangedTo="0"/>
        <edge id="293596618#1-AddedOffRampEdge" sampledSeconds="2374.86" traveltime="22.70" overlapTraveltime="22.93" density="2.71" occupancy="0.34" waitingTime="0.00" speed="21.42" departed="194" arrived="0" entered="0" left="194" laneChangedFrom="25" laneChangedTo="25"/>
        <edge id="30414032" sampledSeconds="4750.26" traveltime="18.86" overlapTraveltime="19.17" density="8.82" occupancy="4.34" waitingTime="0.00" speed="15.87" departed="0" arrived="0" entered="249" left="247" laneChangedFrom="0" laneChangedTo="0"/>
        <edge id="319144060" sampledSeconds="3099.04" traveltime="16.89" overlapTraveltime="17.20" density="6.36" occupancy="1.04" waitingTime="0.00" speed="16.02" departed="333" arrived="0" entered="0" left="332" laneChangedFrom="28" laneChangedTo="28"/>
        <edge id="328393125" sampledSeconds="2975.87" traveltime="11.26" overlapTraveltime="11.45" density="5.36" occupancy="0.66" waitingTime="0.00" speed="27.37" departed="0" arrived="0" entered="260" left="260" laneChangedFrom="77" laneChangedTo="77"/>
        <edge id="328393125-AddedOnRampEdge" sampledSeconds="1190.30" traveltime="4.37" overlapTraveltime="4.56" density="6.55" occupancy="0.63" waitingTime="0.00" speed="23.23" departed="0" arrived="0" entered="262" left="260" laneChangedFrom="33" laneChangedTo="33"/>
        <edge id="332655578" sampledSeconds="3676.60" traveltime="40.73" overlapTraveltime="41.31" density="6.25" occupancy="1.54" waitingTime="0.00" speed="8.03" departed="0" arrived="0" entered="89" left="89" laneChangedFrom="103" laneChangedTo="103"/>
        <edge id="332655581" sampledSeconds="869.60" traveltime="7.60" overlapTraveltime="7.83" density="4.11" occupancy="1.95" waitingTime="0.00" speed="15.64" departed="0" arrived="0" entered="111" left="111" laneChangedFrom="0" laneChangedTo="0"/>
        <edge id="345616204#1" sampledSeconds="4314.12" traveltime="12.07" overlapTraveltime="12.26" density="7.26" occupancy="0.90" waitingTime="0.00" speed="27.36" departed="0" arrived="0" entered="352" left="352" laneChangedFrom="69" laneChangedTo="69"/>
        <edge id="345616204#1-AddedOnRampEdge" sampledSeconds="1349.11" traveltime="3.63" overlapTraveltime="3.82" density="8.14" occupancy="0.78" waitingTime="0.00" speed="25.39" departed="0" arrived="0" entered="354" left="352" laneChangedFrom="124" laneChangedTo="124"/>
        <edge id="345616204#1.334" sampledSeconds="4177.59" traveltime="11.71" overlapTraveltime="11.89" density="7.21" occupancy="0.89" waitingTime="0.00" speed="27.47" departed="0" arrived="0" entered="352" left="350" laneChangedFrom="40" laneChangedTo="40"/>
        <edge id="345616204#1.655" sampledSeconds="4896.02" traveltime="13.84" overlapTraveltime="14.02" density="7.17" occupancy="0.89" waitingTime="0.00" speed="27.42" departed="0" arrived="350" entered="350" left="0" laneChangedFrom="8" laneChangedTo="8"/>
        <edge id="360361373" sampledSeconds="5015.19" traveltime="17.23" overlapTraveltime="17.42" density="6.07" occupancy="0.75" waitingTime="0.00" speed="26.64" departed="0" arrived="0" entered="289" left="287" laneChangedFrom="61" laneChangedTo="61"/>
        <edge id="360361373-AddedOffRampEdge" sampledSeconds="1018.42" traveltime="3.49" overlapTraveltime="3.68" density="6.07" occupancy="0.58" waitingTime="0.00" speed="26.71" departed="0" arrived="0" entered="277" left="277" laneChangedFrom="73" laneChangedTo="73"/>
        <edge id="360361373-AddedOnRampEdge" sampledSeconds="1142.83" traveltime="3.76" overlapTraveltime="3.95" density="6.90" occupancy="0.66" waitingTime="0.00" speed="24.57" departed="0" arrived="0" entered="290" left="289" laneChangedFrom="106" laneChangedTo="106"/>
        <edge id="360361373.1498" sampledSeconds="4280.26" traveltime="14.99" overlapTraveltime="15.18" density="5.93" occupancy="0.73" waitingTime="0.00" speed="26.76" departed="0" arrived="0" entered="282" left="282" laneChangedFrom="32" laneChangedTo="32"/>
        <edge id="360361373.1899" sampledSeconds="3352.82" traveltime="11.76" overlapTraveltime="11.95" density="5.91" occupancy="0.73" waitingTime="0.00" speed="26.79" departed="0" arrived="0" entered="282" left="280" laneChangedFrom="28" laneChangedTo="28"/>
        <edge id="360361373.2215" sampledSeconds="4475.17" traveltime="15.94" overlapTraveltime="16.13" density="5.81" occupancy="0.72" waitingTime="0.00" speed="26.82" departed="0" arrived="0" entered="280" left="277" laneChangedFrom="29" laneChangedTo="29"/>
        <edge id="360361373.2643" sampledSeconds="4300.25" traveltime="15.34" overlapTraveltime="15.53" density="5.81" occupancy="0.72" waitingTime="0.00" speed="26.80" departed="0" arrived="0" entered="277" left="277" laneChangedFrom="44" laneChangedTo="44"/>
        <edge id="360361373.463" sampledSeconds="5615.68" traveltime="19.38" overlapTraveltime="19.57" density="6.02" occupancy="0.75" waitingTime="0.00" speed="26.76" departed="0" arrived="0" entered="287" left="287" laneChangedFrom="55" laneChangedTo="55"/>
        <edge id="360361373.981" sampledSeconds="5536.99" traveltime="19.28" overlapTraveltime="19.46" density="5.96" occupancy="0.74" waitingTime="0.00" speed="26.77" departed="0" arrived="0" entered="287" left="282" laneChangedFrom="42" laneChangedTo="42"/>
        <edge id="4074534" sampledSeconds="321.64" traveltime="4.88" overlapTraveltime="5.19" density="2.32" occupancy="0.54" waitingTime="0.00" speed="15.81" departed="0" arrived="0" entered="62" left="62" laneChangedFrom="10" laneChangedTo="10"/>
        <edge id="41517592" sampledSeconds="896.15" traveltime="9.90" overlapTraveltime="10.09" density="2.81" occupancy="0.68" waitingTime="0.00" speed="18.04" departed="0" arrived="0" entered="89" left="88" laneChangedFrom="84" laneChangedTo="84"/>
        <edge id="428960734" sampledSeconds="6772.75" traveltime="21.93" overlapTraveltime="22.16" density="7.92" occupancy="0.98" waitingTime="0.00" speed="21.68" departed="0" arrived="301" entered="308" left="0" laneChangedFrom="55" laneChangedTo="55"/>
        <edge id="428960735" sampledSeconds="926.23" traveltime="2.78" overlapTraveltime="3.01" density="8.55" occupancy="0.99" waitingTime="0.00" speed="21.67" departed="0" arrived="0" entered="308" left="308" laneChangedFrom="5" laneChangedTo="5"/>
        <edge id="429432523" sampledSeconds="2202.85" traveltime="6.85" overlapTraveltime="7.15" density="11.05" occupancy="1.33" waitingTime="0.00" speed="16.19" departed="0" arrived="0" entered="308" left="308" laneChangedFrom="42" laneChangedTo="42"/>
        <edge id="429432524" sampledSeconds="1725.91" traveltime="7.58" overlapTraveltime="7.88" density="5.04" occupancy="0.82" waitingTime="0.00" speed="24.77" departed="0" arrived="0" entered="219" left="218" laneChangedFrom="49" laneChangedTo="49"/>
        <edge id="429432526" sampledSeconds="4788.45" traveltime="28.29" overlapTraveltime="28.60" density="5.78" occupancy="1.44" waitingTime="0.00" speed="16.28" departed="0" arrived="0" entered="169" left="166" laneChangedFrom="23" laneChangedTo="23"/>
        <edge id="429432925" sampledSeconds="145.36" traveltime="0.16" overlapTraveltime="0.47" density="30.59" occupancy="1.32" waitingTime="0.00" speed="16.16" departed="0" arrived="0" entered="308" left="308" laneChangedFrom="1" laneChangedTo="1"/>
        <edge id="431199180" sampledSeconds="587.16" traveltime="3.10" overlapTraveltime="3.34" density="5.34" occupancy="0.62" waitingTime="0.00" speed="19.80" departed="0" arrived="0" entered="176" left="176" laneChangedFrom="8" laneChangedTo="8"/>
        <edge id="4402237" sampledSeconds="292.70" traveltime="4.36" overlapTraveltime="4.68" density="2.37" occupancy="0.37" waitingTime="0.00" speed="15.74" departed="0" arrived="0" entered="64" left="62" laneChangedFrom="9" laneChangedTo="9"/>
        <edge id="4402297" sampledSeconds="2764.76" traveltime="13.12" overlapTraveltime="13.31" density="4.28" occupancy="0.71" waitingTime="0.00" speed="27.33" departed="0" arrived="0" entered="209" left="206" laneChangedFrom="24" laneChangedTo="24"/>
        <edge id="4404096" sampledSeconds="961.74" traveltime="13.44" overlapTraveltime="13.74" density="2.44" occupancy="0.40" waitingTime="0.00" speed="16.31" departed="0" arrived="0" entered="70" left="70" laneChangedFrom="41" laneChangedTo="41"/>
        <edge id="4414080#0" sampledSeconds="2676.10" traveltime="9.44" overlapTraveltime="9.66" density="5.96" occupancy="0.58" waitingTime="0.00" speed="26.35" departed="0" arrived="0" entered="277" left="277" laneChangedFrom="33" laneChangedTo="33"/>
        <edge id="4414080#0.187" sampledSeconds="2514.92" traveltime="17.46" overlapTraveltime="17.64" density="2.98" occupancy="0.49" waitingTime="0.00" speed="26.89" departed="0" arrived="0" entered="143" left="142" laneChangedFrom="38" laneChangedTo="38"/>
        <edge id="4414080#0.756" sampledSeconds="555.77" traveltime="2.00" overlapTraveltime="2.20" density="6.45" occupancy="0.73" waitingTime="0.00" speed="24.04" departed="0" arrived="0" entered="253" left="252" laneChangedFrom="123" laneChangedTo="123"/>
        <edge id="4414080#0.756.47" sampledSeconds="559.12" traveltime="2.04" overlapTraveltime="2.23" density="5.85" occupancy="0.89" waitingTime="0.00" speed="26.07" departed="0" arrived="0" entered="252" left="250" laneChangedFrom="10" laneChangedTo="10"/>
        <edge id="4414080#1-AddedOnRampEdge" sampledSeconds="4300.58" traveltime="12.89" overlapTraveltime="13.08" density="6.96" occupancy="0.86" waitingTime="0.00" speed="26.62" departed="0" arrived="0" entered="331" left="328" laneChangedFrom="140" laneChangedTo="140"/>
        <edge id="4414080#1-AddedOnRampEdge.343" sampledSeconds="4078.82" traveltime="12.26" overlapTraveltime="12.45" density="6.83" occupancy="0.84" waitingTime="0.00" speed="27.05" departed="0" arrived="0" entered="328" left="325" laneChangedFrom="83" laneChangedTo="83"/>
        <edge id="4414080#1-AddedOnRampEdge.675" sampledSeconds="2887.53" traveltime="8.70" overlapTraveltime="8.88" density="6.81" occupancy="0.84" waitingTime="0.00" speed="27.06" departed="0" arrived="0" entered="325" left="325" laneChangedFrom="37" laneChangedTo="37"/>
        <edge id="457424511#3" sampledSeconds="3613.14" traveltime="25.38" overlapTraveltime="25.68" density="4.84" occupancy="0.81" waitingTime="0.00" speed="16.34" departed="274" arrived="0" entered="0" left="274" laneChangedFrom="114" laneChangedTo="114"/>
        <edge id="457424511#3.414" sampledSeconds="6222.99" traveltime="22.52" overlapTraveltime="22.87" density="9.43" occupancy="1.57" waitingTime="0.00" speed="16.25" departed="0" arrived="0" entered="274" left="270" laneChangedFrom="134" laneChangedTo="134"/>
        <edge id="48290550" sampledSeconds="11588.75" traveltime="27.26" overlapTraveltime="27.45" density="8.68" occupancy="1.08" waitingTime="0.00" speed="27.20" departed="0" arrived="0" entered="424" left="422" laneChangedFrom="195" laneChangedTo="195"/>
        <edge id="48290550-AddedOffRampEdge" sampledSeconds="1825.50" traveltime="4.34" overlapTraveltime="4.59" density="9.22" occupancy="0.73" waitingTime="0.00" speed="25.09" departed="0" arrived="0" entered="400" left="397" laneChangedFrom="133" laneChangedTo="133"/>
        <edge id="48290550.1176" sampledSeconds="4753.66" traveltime="11.14" overlapTraveltime="11.33" density="8.68" occupancy="1.07" waitingTime="0.00" speed="27.31" departed="0" arrived="0" entered="421" left="418" laneChangedFrom="53" laneChangedTo="53"/>
        <edge id="48290550.1480" sampledSeconds="6143.05" traveltime="14.57" overlapTraveltime="14.76" density="8.57" occupancy="1.06" waitingTime="0.00" speed="27.33" departed="0" arrived="0" entered="418" left="414" laneChangedFrom="75" laneChangedTo="75"/>
        <edge id="48290550.1878" sampledSeconds="7836.30" traveltime="18.79" overlapTraveltime="18.98" density="8.47" occupancy="1.05" waitingTime="0.00" speed="27.34" departed="0" arrived="0" entered="414" left="412" laneChangedFrom="81" laneChangedTo="81"/>
        <edge id="48290550.2391" sampledSeconds="7745.85" traveltime="18.75" overlapTraveltime="18.93" density="8.39" occupancy="1.04" waitingTime="0.00" speed="27.34" departed="0" arrived="0" entered="412" left="406" laneChangedFrom="58" laneChangedTo="58"/>
        <edge id="48290550.2904" sampledSeconds="5197.37" traveltime="12.70" overlapTraveltime="12.89" density="8.37" occupancy="1.04" waitingTime="0.00" speed="27.15" departed="0" arrived="0" entered="406" left="402" laneChangedFrom="127" laneChangedTo="127"/>
        <edge id="48290550.3266" sampledSeconds="1402.09" traveltime="3.31" overlapTraveltime="3.50" density="8.76" occupancy="0.83" waitingTime="0.00" speed="26.88" departed="0" arrived="0" entered="402" left="401" laneChangedFrom="63" laneChangedTo="63"/>
        <edge id="48290550.745" sampledSeconds="6728.97" traveltime="15.79" overlapTraveltime="15.97" density="8.67" occupancy="1.08" waitingTime="0.00" speed="27.30" departed="0" arrived="0" entered="422" left="421" laneChangedFrom="76" laneChangedTo="76"/>
        <edge id="48290551#0" sampledSeconds="1638.63" traveltime="19.71" overlapTraveltime="20.03" density="2.92" occupancy="0.72" waitingTime="0.00" speed="15.80" departed="0" arrived="0" entered="82" left="81" laneChangedFrom="78" laneChangedTo="78"/>
        <edge id="48290551#1" sampledSeconds="1863.21" traveltime="7.81" overlapTraveltime="8.13" density="8.35" occupancy="1.35" waitingTime="0.00" speed="15.87" departed="0" arrived="0" entered="230" left="229" laneChangedFrom="63" laneChangedTo="63"/>
        <edge id="48290552" sampledSeconds="1102.01" traveltime="8.93" overlapTraveltime="9.56" density="4.56" occupancy="2.17" waitingTime="0.00" speed="14.59" departed="0" arrived="0" entered="116" left="114" laneChangedFrom="0" laneChangedTo="0"/>
        <edge id="48516115" sampledSeconds="2169.30" traveltime="10.67" overlapTraveltime="10.90" density="5.22" occupancy="0.51" waitingTime="0.00" speed="21.64" departed="0" arrived="0" entered="200" left="198" laneChangedFrom="19" laneChangedTo="19"/>
        <edge id="48516117" sampledSeconds="1836.46" traveltime="17.90" overlapTraveltime="18.13" density="2.62" occupancy="0.32" waitingTime="0.00" speed="21.75" departed="201" arrived="0" entered="0" left="200" laneChangedFrom="30" laneChangedTo="30"/>
        <edge id="48516117.389" sampledSeconds="4920.81" traveltime="24.37" overlapTraveltime="24.60" density="5.17" occupancy="0.64" waitingTime="0.00" speed="21.68" departed="0" arrived="0" entered="200" left="200" laneChangedFrom="189" laneChangedTo="189"/>
        <edge id="489961226" sampledSeconds="587.68" traveltime="4.71" overlapTraveltime="5.02" density="4.34" occupancy="1.02" waitingTime="0.00" speed="15.98" departed="0" arrived="0" entered="117" left="117" laneChangedFrom="0" laneChangedTo="0"/>
        <edge id="491989399#0" sampledSeconds="1057.62" traveltime="4.47" overlapTraveltime="4.71" density="6.53" occupancy="1.04" waitingTime="0.00" speed="20.19" departed="0" arrived="0" entered="225" left="224" laneChangedFrom="27" laneChangedTo="27"/>
        <edge id="491989399#1-AddedOnRampEdge" sampledSeconds="7862.93" traveltime="24.77" overlapTraveltime="25.00" density="8.26" occupancy="1.03" waitingTime="0.00" speed="21.36" departed="0" arrived="0" entered="317" left="313" laneChangedFrom="223" laneChangedTo="223"/>
        <edge id="491989399#1-AddedOnRampEdge.533" sampledSeconds="5769.88" traveltime="18.27" overlapTraveltime="18.50" density="8.18" occupancy="1.02" waitingTime="0.00" speed="21.45" departed="0" arrived="0" entered="313" left="310" laneChangedFrom="51" laneChangedTo="51"/>
        <edge id="491989399#1-AddedOnRampEdge.925" sampledSeconds="5705.14" traveltime="18.36" overlapTraveltime="18.59" density="8.05" occupancy="1.00" waitingTime="0.00" speed="21.44" departed="0" arrived="307" entered="310" left="0" laneChangedFrom="25" laneChangedTo="25"/>
        <edge id="492226824" sampledSeconds="456.26" traveltime="4.67" overlapTraveltime="4.91" density="2.80" occupancy="1.32" waitingTime="0.00" speed="19.49" departed="0" arrived="0" entered="93" left="93" laneChangedFrom="0" laneChangedTo="0"/>
        <edge id="492226827" sampledSeconds="1748.59" traveltime="19.34" overlapTraveltime="19.65" density="3.06" occupancy="0.75" waitingTime="0.00" speed="16.42" departed="0" arrived="0" entered="89" left="89" laneChangedFrom="13" laneChangedTo="13"/>
        <edge id="492226831" sampledSeconds="2062.94" traveltime="15.11" overlapTraveltime="15.43" density="4.80" occupancy="1.18" waitingTime="0.00" speed="15.79" departed="0" arrived="0" entered="134" left="133" laneChangedFrom="22" laneChangedTo="22"/>
        <edge id="492229071" sampledSeconds="1005.31" traveltime="7.53" overlapTraveltime="7.72" density="3.30" occupancy="1.60" waitingTime="0.00" speed="22.54" departed="0" arrived="0" entered="131" left="130" laneChangedFrom="0" laneChangedTo="0"/>