<?xml version="1.0" encoding="UTF-8"?>

<!-- generated on 11/05/19 11:03:57 by Eclipse SUMO Version 1.3.1
<configuration xmlns:xsi="http://www.w3.org/2001/XMLSchema-instance" xsi:noNamespaceSchemaLocation="http://sumo.dlr.de/xsd/sumoConfiguration.xsd">

    <input>
        <net-file value="M50network.net.xml"/>
        <additional-files value="vtypes.add.xml,M50_routes.rou.xml,M50_emitters.emi.xml,M50_detectors.poi.xml,outputs.add.xml"/>
    </input>

    <output>
        <tripinfo-output value="output/tripinfo.out.xml"/>
    </output>

    <time>
        <begin value="0"/>
        <end value="86400"/>
        <step-length value="0.5"/>
    </time>

    <processing>
        <collision.mingap-factor value="0"/>
        <emergencydecel.warning-threshold value="5"/>
    </processing>

    <report>
        <log value="output/log.xml"/>
    </report>

    <gui_only>
        <tracker-interval value="0.5"/>
    </gui_only>

</configuration>
-->

<meandata xmlns:xsi="http://www.w3.org/2001/XMLSchema-instance" xsi:noNamespaceSchemaLocation="http://sumo.dlr.de/xsd/meandata_file.xsd">
    <interval begin="0.00" end="1800.00" id="1">
        <edge id="106130759" sampledSeconds="6469.63" traveltime="29.18" overlapTraveltime="29.37" density="4.54" occupancy="0.57" waitingTime="0.00" speed="27.14" departed="449" arrived="0" entered="0" left="446" laneChangedFrom="210" laneChangedTo="210"/>
        <edge id="106130759-AddedOffRampEdge" sampledSeconds="2197.39" traveltime="4.86" overlapTraveltime="5.10" density="9.79" occupancy="0.95" waitingTime="0.00" speed="25.45" departed="0" arrived="0" entered="432" left="430" laneChangedFrom="34" laneChangedTo="34"/>
        <edge id="106130759.1186" sampledSeconds="7254.15" traveltime="16.26" overlapTraveltime="16.45" density="9.08" occupancy="1.14" waitingTime="0.00" speed="27.29" departed="0" arrived="0" entered="442" left="440" laneChangedFrom="64" laneChangedTo="64"/>
        <edge id="106130759.1630" sampledSeconds="3919.17" traveltime="8.73" overlapTraveltime="8.92" density="9.15" occupancy="1.13" waitingTime="0.00" speed="27.26" departed="0" arrived="0" entered="440" left="437" laneChangedFrom="42" laneChangedTo="42"/>
        <edge id="106130759.1868" sampledSeconds="3755.02" traveltime="8.44" overlapTraveltime="8.63" density="9.07" occupancy="1.12" waitingTime="0.00" speed="27.23" departed="0" arrived="0" entered="437" left="434" laneChangedFrom="34" laneChangedTo="34"/>
        <edge id="106130759.2098" sampledSeconds="5489.97" traveltime="12.46" overlapTraveltime="12.65" density="9.00" occupancy="1.12" waitingTime="0.00" speed="27.17" departed="0" arrived="0" entered="434" left="432" laneChangedFrom="54" laneChangedTo="54"/>
        <edge id="106130759.2437" sampledSeconds="2493.04" traveltime="5.58" overlapTraveltime="5.77" density="9.21" occupancy="1.13" waitingTime="0.00" speed="26.94" departed="0" arrived="0" entered="432" left="432" laneChangedFrom="106" laneChangedTo="106"/>
        <edge id="106130759.791" sampledSeconds="6509.51" traveltime="14.48" overlapTraveltime="14.66" density="9.17" occupancy="1.14" waitingTime="0.00" speed="27.23" departed="0" arrived="0" entered="446" left="442" laneChangedFrom="141" laneChangedTo="141"/>
        <edge id="11955830" sampledSeconds="3694.76" traveltime="16.71" overlapTraveltime="17.02" density="7.60" occupancy="1.25" waitingTime="5.00" speed="16.15" departed="0" arrived="0" entered="218" left="216" laneChangedFrom="50" laneChangedTo="50"/>
        <edge id="11955831" sampledSeconds="1627.58" traveltime="6.83" overlapTraveltime="7.14" density="8.12" occupancy="0.98" waitingTime="0.00" speed="16.31" departed="0" arrived="0" entered="230" left="227" laneChangedFrom="36" laneChangedTo="36"/>
        <edge id="11959492" sampledSeconds="4290.14" traveltime="37.30" overlapTraveltime="37.88" density="8.27" occupancy="4.07" waitingTime="0.00" speed="7.74" departed="0" arrived="0" entered="114" left="111" laneChangedFrom="0" laneChangedTo="0"/>
        <edge id="11994462" sampledSeconds="2039.15" traveltime="22.25" overlapTraveltime="22.85" density="6.46" occupancy="1.57" waitingTime="0.00" speed="7.90" departed="0" arrived="0" entered="90" left="89" laneChangedFrom="11" laneChangedTo="11"/>
        <edge id="11994462-AddedOnRampEdge" sampledSeconds="742.52" traveltime="7.62" overlapTraveltime="8.25" density="6.86" occupancy="1.58" waitingTime="0.00" speed="7.89" departed="0" arrived="0" entered="90" left="90" laneChangedFrom="53" laneChangedTo="53"/>
        <edge id="128189136" sampledSeconds="3675.19" traveltime="15.97" overlapTraveltime="16.28" density="8.01" occupancy="1.99" waitingTime="0.00" speed="15.96" departed="0" arrived="0" entered="227" left="224" laneChangedFrom="46" laneChangedTo="46"/>
        <edge id="146909950#0" sampledSeconds="635.77" traveltime="2.96" overlapTraveltime="3.20" density="5.53" occupancy="0.51" waitingTime="0.00" speed="21.56" departed="0" arrived="0" entered="199" left="199" laneChangedFrom="1" laneChangedTo="1"/>
        <edge id="146909950#1" sampledSeconds="614.89" traveltime="5.35" overlapTraveltime="5.64" density="3.09" occupancy="0.49" waitingTime="0.00" speed="20.51" departed="0" arrived="0" entered="109" left="109" laneChangedFrom="2" laneChangedTo="2"/>
        <edge id="155345296#0" sampledSeconds="418.96" traveltime="16.44" overlapTraveltime="16.76" density="0.91" occupancy="0.22" waitingTime="0.00" speed="15.64" departed="0" arrived="0" entered="25" left="25" laneChangedFrom="2" laneChangedTo="2"/>
        <edge id="155345296#1" sampledSeconds="273.69" traveltime="3.96" overlapTraveltime="4.28" density="2.45" occupancy="0.38" waitingTime="0.00" speed="15.66" departed="0" arrived="0" entered="64" left="64" laneChangedFrom="39" laneChangedTo="39"/>
        <edge id="16403444#0" sampledSeconds="1007.11" traveltime="16.05" overlapTraveltime="16.37" density="2.21" occupancy="0.54" waitingTime="0.00" speed="15.78" departed="0" arrived="0" entered="62" left="61" laneChangedFrom="15" laneChangedTo="15"/>
        <edge id="16403444#1" sampledSeconds="1271.42" traveltime="9.38" overlapTraveltime="9.70" density="4.71" occupancy="0.76" waitingTime="0.00" speed="15.98" departed="0" arrived="0" entered="132" left="131" laneChangedFrom="17" laneChangedTo="17"/>
        <edge id="16403446" sampledSeconds="1580.60" traveltime="6.82" overlapTraveltime="7.13" density="7.98" occupancy="1.94" waitingTime="0.00" speed="16.13" departed="0" arrived="0" entered="222" left="221" laneChangedFrom="1" laneChangedTo="1"/>
        <edge id="16808971" sampledSeconds="1544.00" traveltime="21.13" overlapTraveltime="21.44" density="2.51" occupancy="1.25" waitingTime="0.00" speed="16.18" departed="0" arrived="0" entered="72" left="72" laneChangedFrom="0" laneChangedTo="0"/>
        <edge id="17516648" sampledSeconds="580.91" traveltime="5.92" overlapTraveltime="6.53" density="3.59" occupancy="0.83" waitingTime="0.00" speed="14.52" departed="0" arrived="0" entered="89" left="89" laneChangedFrom="13" laneChangedTo="13"/>
        <edge id="17550539" sampledSeconds="858.20" traveltime="6.25" overlapTraveltime="6.55" density="4.79" occupancy="2.28" waitingTime="0.00" speed="15.95" departed="0" arrived="0" entered="131" left="131" laneChangedFrom="0" laneChangedTo="0"/>
        <edge id="18702678" sampledSeconds="164.06" traveltime="3.82" overlapTraveltime="4.21" density="1.54" occupancy="0.71" waitingTime="0.00" speed="15.24" departed="0" arrived="0" entered="39" left="39" laneChangedFrom="0" laneChangedTo="0"/>
        <edge id="18702680" sampledSeconds="194.24" traveltime="4.66" overlapTraveltime="4.98" density="1.51" occupancy="0.70" waitingTime="0.00" speed="15.36" departed="0" arrived="0" entered="39" left="39" laneChangedFrom="0" laneChangedTo="0"/>
        <edge id="18702682" sampledSeconds="229.80" traveltime="5.52" overlapTraveltime="5.89" density="1.77" occupancy="0.83" waitingTime="0.00" speed="13.10" departed="0" arrived="0" entered="39" left="39" laneChangedFrom="0" laneChangedTo="0"/>
        <edge id="208416643" sampledSeconds="16.05" traveltime="0.69" overlapTraveltime="1.00" density="0.79" occupancy="0.14" waitingTime="0.00" speed="16.27" departed="0" arrived="0" entered="16" left="16" laneChangedFrom="0" laneChangedTo="0"/>
        <edge id="22941414" sampledSeconds="2773.29" traveltime="15.45" overlapTraveltime="15.76" density="6.27" occupancy="1.54" waitingTime="0.00" speed="15.91" departed="0" arrived="0" entered="176" left="176" laneChangedFrom="41" laneChangedTo="41"/>
        <edge id="22941416#0" sampledSeconds="662.29" traveltime="7.47" overlapTraveltime="7.79" density="3.14" occupancy="1.51" waitingTime="0.00" speed="15.68" departed="0" arrived="0" entered="85" left="85" laneChangedFrom="0" laneChangedTo="0"/>
        <edge id="22941416#1" sampledSeconds="1998.35" traveltime="23.31" overlapTraveltime="23.62" density="3.06" occupancy="1.51" waitingTime="0.00" speed="15.55" departed="0" arrived="0" entered="85" left="84" laneChangedFrom="0" laneChangedTo="0"/>
        <edge id="261187938" sampledSeconds="409.42" traveltime="1.88" overlapTraveltime="2.11" density="5.69" occupancy="0.63" waitingTime="0.00" speed="21.31" departed="0" arrived="0" entered="194" left="194" laneChangedFrom="0" laneChangedTo="0"/>
        <edge id="261187938-AddedOffRampEdge" sampledSeconds="941.04" traveltime="4.58" overlapTraveltime="4.87" density="5.45" occupancy="0.64" waitingTime="0.00" speed="20.72" departed="0" arrived="0" entered="194" left="193" laneChangedFrom="4" laneChangedTo="4"/>
        <edge id="261583463" sampledSeconds="253.74" traveltime="12.37" overlapTraveltime="12.69" density="0.71" occupancy="0.35" waitingTime="0.00" speed="16.12" departed="0" arrived="0" entered="20" left="20" laneChangedFrom="0" laneChangedTo="0"/>
        <edge id="261583464" sampledSeconds="1016.45" traveltime="10.90" overlapTraveltime="11.22" density="3.21" occupancy="1.57" waitingTime="0.00" speed="16.15" departed="0" arrived="0" entered="92" left="90" laneChangedFrom="0" laneChangedTo="0"/>
        <edge id="26378010" sampledSeconds="526.90" traveltime="5.42" overlapTraveltime="5.73" density="3.40" occupancy="1.62" waitingTime="0.00" speed="15.90" departed="0" arrived="0" entered="92" left="92" laneChangedFrom="0" laneChangedTo="0"/>
        <edge id="26380527" sampledSeconds="1190.88" traveltime="9.80" overlapTraveltime="10.11" density="2.68" occupancy="0.65" waitingTime="0.00" speed="24.95" departed="0" arrived="0" entered="118" left="117" laneChangedFrom="6" laneChangedTo="6"/>
        <edge id="273755091#2" sampledSeconds="182.61" traveltime="0.63" overlapTraveltime="1.02" density="17.14" occupancy="1.81" waitingTime="23.50" speed="10.70" departed="0" arrived="0" entered="178" left="178" laneChangedFrom="1" laneChangedTo="1"/>
        <edge id="28001589" sampledSeconds="480.10" traveltime="3.90" overlapTraveltime="4.21" density="4.18" occupancy="0.98" waitingTime="0.00" speed="16.37" departed="0" arrived="0" entered="114" left="114" laneChangedFrom="0" laneChangedTo="0"/>
        <edge id="28458821" sampledSeconds="1952.72" traveltime="23.30" overlapTraveltime="23.62" density="2.98" occupancy="1.47" waitingTime="0.00" speed="15.60" departed="0" arrived="0" entered="83" left="82" laneChangedFrom="0" laneChangedTo="0"/>
        <edge id="28458824" sampledSeconds="2404.35" traveltime="26.93" overlapTraveltime="27.23" density="3.09" occupancy="1.54" waitingTime="0.00" speed="16.07" departed="0" arrived="0" entered="90" left="88" laneChangedFrom="0" laneChangedTo="0"/>
        <edge id="28458828" sampledSeconds="1640.58" traveltime="5.00" overlapTraveltime="5.31" density="11.35" occupancy="1.07" waitingTime="0.00" speed="16.07" departed="0" arrived="0" entered="309" left="309" laneChangedFrom="164" laneChangedTo="164"/>
        <edge id="28458895" sampledSeconds="1619.41" traveltime="5.01" overlapTraveltime="5.24" density="8.96" occupancy="1.07" waitingTime="0.00" speed="20.12" departed="0" arrived="0" entered="309" left="308" laneChangedFrom="31" laneChangedTo="31"/>
        <edge id="28531510" sampledSeconds="174.15" traveltime="2.90" overlapTraveltime="3.22" density="2.11" occupancy="0.48" waitingTime="0.00" speed="15.79" departed="0" arrived="0" entered="54" left="54" laneChangedFrom="20" laneChangedTo="20"/>
        <edge id="28531510.48" sampledSeconds="433.79" traveltime="7.72" overlapTraveltime="8.03" density="1.96" occupancy="0.95" waitingTime="0.00" speed="15.94" departed="0" arrived="0" entered="54" left="54" laneChangedFrom="0" laneChangedTo="0"/>
        <edge id="29038677" sampledSeconds="753.56" traveltime="16.02" overlapTraveltime="16.33" density="1.62" occupancy="0.80" waitingTime="0.00" speed="16.09" departed="0" arrived="0" entered="47" left="46" laneChangedFrom="0" laneChangedTo="0"/>
        <edge id="29332864" sampledSeconds="2095.91" traveltime="22.00" overlapTraveltime="22.30" density="3.23" occupancy="1.61" waitingTime="0.00" speed="16.42" departed="0" arrived="0" entered="94" left="94" laneChangedFrom="0" laneChangedTo="0"/>
        <edge id="293596618#1-AddedOffRampEdge" sampledSeconds="2298.25" traveltime="22.79" overlapTraveltime="23.02" density="2.63" occupancy="0.32" waitingTime="0.00" speed="21.34" departed="194" arrived="0" entered="0" left="194" laneChangedFrom="32" laneChangedTo="32"/>
        <edge id="30414032" sampledSeconds="4783.20" traveltime="18.95" overlapTraveltime="19.27" density="8.88" occupancy="4.37" waitingTime="0.00" speed="15.79" departed="0" arrived="0" entered="249" left="247" laneChangedFrom="0" laneChangedTo="0"/>
        <edge id="319144060" sampledSeconds="3148.00" traveltime="16.87" overlapTraveltime="17.19" density="6.46" occupancy="1.06" waitingTime="0.00" speed="16.03" departed="333" arrived="0" entered="0" left="333" laneChangedFrom="29" laneChangedTo="29"/>
        <edge id="328393125" sampledSeconds="2999.42" traveltime="11.29" overlapTraveltime="11.47" density="5.41" occupancy="0.67" waitingTime="0.00" speed="27.31" departed="0" arrived="0" entered="262" left="261" laneChangedFrom="72" laneChangedTo="72"/>
        <edge id="328393125-AddedOnRampEdge" sampledSeconds="1203.22" traveltime="4.40" overlapTraveltime="4.59" density="6.62" occupancy="0.63" waitingTime="0.00" speed="23.10" departed="0" arrived="0" entered="264" left="262" laneChangedFrom="34" laneChangedTo="34"/>
        <edge id="332655578" sampledSeconds="3690.62" traveltime="40.89" overlapTraveltime="41.47" density="6.28" occupancy="1.55" waitingTime="0.00" speed="8.00" departed="0" arrived="0" entered="89" left="89" laneChangedFrom="98" laneChangedTo="98"/>
        <edge id="332655581" sampledSeconds="867.41" traveltime="7.62" overlapTraveltime="7.85" density="4.10" occupancy="1.94" waitingTime="0.00" speed="15.60" departed="0" arrived="0" entered="111" left="110" laneChangedFrom="0" laneChangedTo="0"/>
        <edge id="345616204#1" sampledSeconds="4330.43" traveltime="12.09" overlapTraveltime="12.27" density="7.28" occupancy="0.90" waitingTime="0.00" speed="27.33" departed="0" arrived="0" entered="354" left="351" laneChangedFrom="76" laneChangedTo="76"/>
        <edge id="345616204#1-AddedOnRampEdge" sampledSeconds="1345.76" traveltime="3.61" overlapTraveltime="3.80" density="8.12" occupancy="0.78" waitingTime="0.00" speed="25.54" departed="0" arrived="0" entered="355" left="354" laneChangedFrom="126" laneChangedTo="126"/>
        <edge id="345616204#1.334" sampledSeconds="4181.42" traveltime="11.74" overlapTraveltime="11.92" density="7.22" occupancy="0.89" waitingTime="0.00" speed="27.41" departed="0" arrived="0" entered="351" left="350" laneChangedFrom="49" laneChangedTo="49"/>
        <edge id="345616204#1.655" sampledSeconds="4907.27" traveltime="13.87" overlapTraveltime="14.05" density="7.18" occupancy="0.89" waitingTime="0.00" speed="27.36" departed="0" arrived="350" entered="350" left="0" laneChangedFrom="12" laneChangedTo="12"/>
        <edge id="360361373" sampledSeconds="5014.33" traveltime="17.22" overlapTraveltime="17.40" density="6.07" occupancy="0.75" waitingTime="0.00" speed="26.67" departed="0" arrived="0" entered="290" left="287" laneChangedFrom="58" laneChangedTo="58"/>
        <edge id="360361373-AddedOffRampEdge" sampledSeconds="1019.44" traveltime="3.49" overlapTraveltime="3.68" density="6.07" occupancy="0.58" waitingTime="0.00" speed="26.70" departed="0" arrived="0" entered="277" left="277" laneChangedFrom="75" laneChangedTo="75"/>
        <edge id="360361373-AddedOnRampEdge" sampledSeconds="1140.67" traveltime="3.74" overlapTraveltime="3.93" density="6.89" occupancy="0.65" waitingTime="0.00" speed="24.68" departed="0" arrived="0" entered="291" left="290" laneChangedFrom="111" laneChangedTo="111"/>
        <edge id="360361373.1498" sampledSeconds="4288.47" traveltime="15.02" overlapTraveltime="15.21" density="5.94" occupancy="0.74" waitingTime="0.00" speed="26.71" departed="0" arrived="0" entered="282" left="282" laneChangedFrom="32" laneChangedTo="32"/>
        <edge id="360361373.1899" sampledSeconds="3363.56" traveltime="11.78" overlapTraveltime="11.97" density="5.93" occupancy="0.73" waitingTime="0.00" speed="26.74" departed="0" arrived="0" entered="282" left="280" laneChangedFrom="19" laneChangedTo="19"/>
        <edge id="360361373.2215" sampledSeconds="4490.81" traveltime="15.98" overlapTraveltime="16.17" density="5.83" occupancy="0.72" waitingTime="0.00" speed="26.76" departed="0" arrived="0" entered="280" left="277" laneChangedFrom="42" laneChangedTo="42"/>
        <edge id="360361373.2643" sampledSeconds="4308.41" traveltime="15.37" overlapTraveltime="15.56" density="5.82" occupancy="0.72" waitingTime="0.00" speed="26.75" departed="0" arrived="0" entered="277" left="277" laneChangedFrom="43" laneChangedTo="43"/>
        <edge id="360361373.463" sampledSeconds="5623.58" traveltime="19.42" overlapTraveltime="19.61" density="6.02" occupancy="0.75" waitingTime="0.00" speed="26.70" departed="0" arrived="0" entered="287" left="286" laneChangedFrom="56" laneChangedTo="56"/>
        <edge id="360361373.981" sampledSeconds="5536.61" traveltime="19.32" overlapTraveltime="19.51" density="5.96" occupancy="0.74" waitingTime="0.00" speed="26.70" departed="0" arrived="0" entered="286" left="282" laneChangedFrom="46" laneChangedTo="46"/>
        <edge id="4074534" sampledSeconds="322.05" traveltime="4.88" overlapTraveltime="5.19" density="2.32" occupancy="0.54" waitingTime="0.00" speed="15.80" departed="0" arrived="0" entered="62" left="62" laneChangedFrom="10" laneChangedTo="10"/>
        <edge id="41517592" sampledSeconds="906.80" traveltime="10.00" overlapTraveltime="10.19" density="2.85" occupancy="0.68" waitingTime="0.00" speed="17.86" departed="0" arrived="0" entered="89" left="89" laneChangedFrom="85" laneChangedTo="85"/>
        <edge id="428960734" sampledSeconds="6768.21" traveltime="21.94" overlapTraveltime="22.17" density="7.91" occupancy="0.98" waitingTime="0.00" speed="21.67" departed="0" arrived="302" entered="308" left="0" laneChangedFrom="48" laneChangedTo="48"/>
        <edge id="428960735" sampledSeconds="928.84" traveltime="2.78" overlapTraveltime="3.02" density="8.58" occupancy="0.99" waitingTime="0.00" speed="21.61" departed="0" arrived="0" entered="308" left="308" laneChangedFrom="12" laneChangedTo="12"/>
        <edge id="429432523" sampledSeconds="2215.85" traveltime="6.87" overlapTraveltime="7.17" density="11.11" occupancy="1.33" waitingTime="0.00" speed="16.15" departed="0" arrived="0" entered="309" left="309" laneChangedFrom="40" laneChangedTo="40"/>
        <edge id="429432524" sampledSeconds="1720.67" traveltime="7.55" overlapTraveltime="7.86" density="5.03" occupancy="0.81" waitingTime="0.00" speed="24.84" departed="0" arrived="0" entered="219" left="218" laneChangedFrom="48" laneChangedTo="48"/>
        <edge id="429432526" sampledSeconds="4783.20" traveltime="28.26" overlapTraveltime="28.57" density="5.77" occupancy="1.43" waitingTime="0.00" speed="16.29" departed="0" arrived="0" entered="169" left="166" laneChangedFrom="19" laneChangedTo="19"/>
        <edge id="429432925" sampledSeconds="146.69" traveltime="0.16" overlapTraveltime="0.48" density="30.87" occupancy="1.34" waitingTime="0.00" speed="16.11" departed="0" arrived="0" entered="309" left="309" laneChangedFrom="2" laneChangedTo="2"/>
        <edge id="431199180" sampledSeconds="591.40" traveltime="3.12" overlapTraveltime="3.36" density="5.38" occupancy="0.62" waitingTime="0.00" speed="19.65" departed="0" arrived="0" entered="176" left="176" laneChangedFrom="5" laneChangedTo="5"/>
        <edge id="4402237" sampledSeconds="293.32" traveltime="4.36" overlapTraveltime="4.68" density="2.37" occupancy="0.37" waitingTime="0.00" speed="15.74" departed="0" arrived="0" entered="64" left="62" laneChangedFrom="8" laneChangedTo="8"/>
        <edge id="4402297" sampledSeconds="2759.72" traveltime="13.14" overlapTraveltime="13.33" density="4.27" occupancy="0.71" waitingTime="0.00" speed="27.30" departed="0" arrived="0" entered="208" left="206" laneChangedFrom="22" laneChangedTo="22"/>
        <edge id="4404096" sampledSeconds="963.91" traveltime="13.46" overlapTraveltime="13.77" density="2.44" occupancy="0.40" waitingTime="0.00" speed="16.27" departed="0" arrived="0" entered="70" left="70" laneChangedFrom="39" laneChangedTo="39"/>
        <edge id="4414080#0" sampledSeconds="2680.00" traveltime="9.45" overlapTraveltime="9.68" density="5.97" occupancy="0.59" waitingTime="0.00" speed="26.31" departed="0" arrived="0" entered="277" left="277" laneChangedFrom="28" laneChangedTo="28"/>
        <edge id="4414080#0.187" sampledSeconds="2506.59" traveltime="17.40" overlapTraveltime="17.58" density="2.97" occupancy="0.49" waitingTime="0.00" speed="26.99" departed="0" arrived="0" entered="143" left="142" laneChangedFrom="40" laneChangedTo="40"/>
        <edge id="4414080#0.756" sampledSeconds="543.36" traveltime="1.97" overlapTraveltime="2.17" density="6.31" occupancy="0.72" waitingTime="0.00" speed="24.38" departed="0" arrived="0" entered="251" left="250" laneChangedFrom="121" laneChangedTo="121"/>
        <edge id="4414080#0.756.47" sampledSeconds="552.87" traveltime="2.03" overlapTraveltime="2.22" density="5.79" occupancy="0.88" waitingTime="0.00" speed="26.17" departed="0" arrived="0" entered="250" left="249" laneChangedFrom="15" laneChangedTo="15"/>
        <edge id="4414080#1-AddedOnRampEdge" sampledSeconds="4314.65" traveltime="12.89" overlapTraveltime="13.08" density="6.99" occupancy="0.86" waitingTime="0.00" speed="26.62" departed="0" arrived="0" entered="330" left="329" laneChangedFrom="146" laneChangedTo="146"/>
        <edge id="4414080#1-AddedOnRampEdge.343" sampledSeconds="4088.55" traveltime="12.28" overlapTraveltime="12.46" density="6.85" occupancy="0.85" waitingTime="0.00" speed="27.02" departed="0" arrived="0" entered="329" left="326" laneChangedFrom="86" laneChangedTo="86"/>
        <edge id="4414080#1-AddedOnRampEdge.675" sampledSeconds="2895.00" traveltime="8.70" overlapTraveltime="8.89" density="6.83" occupancy="0.84" waitingTime="0.00" speed="27.06" departed="0" arrived="0" entered="326" left="325" laneChangedFrom="33" laneChangedTo="33"/>
        <edge id="457424511#3" sampledSeconds="3592.96" traveltime="25.40" overlapTraveltime="25.70" density="4.81" occupancy="0.80" waitingTime="0.00" speed="16.33" departed="274" arrived="0" entered="0" left="274" laneChangedFrom="104" laneChangedTo="104"/>
        <edge id="457424511#3.414" sampledSeconds="6236.79" traveltime="22.55" overlapTraveltime="22.89" density="9.45" occupancy="1.57" waitingTime="0.00" speed="16.23" departed="0" arrived="0" entered="274" left="270" laneChangedFrom="130" laneChangedTo="130"/>
        <edge id="48290550" sampledSeconds="11578.21" traveltime="27.27" overlapTraveltime="27.45" density="8.67" occupancy="1.08" waitingTime="0.00" speed="27.19" departed="0" arrived="0" entered="423" left="421" laneChangedFrom="174" laneChangedTo="174"/>
        <edge id="48290550-AddedOffRampEdge" sampledSeconds="1815.93" traveltime="4.32" overlapTraveltime="4.56" density="9.17" occupancy="0.73" waitingTime="0.00" speed="25.21" departed="0" arrived="0" entered="400" left="397" laneChangedFrom="133" laneChangedTo="133"/>
        <edge id="48290550.1176" sampledSeconds="4751.96" traveltime="11.16" overlapTraveltime="11.35" density="8.68" occupancy="1.07" waitingTime="0.00" speed="27.26" departed="0" arrived="0" entered="419" left="418" laneChangedFrom="39" laneChangedTo="39"/>
        <edge id="48290550.1480" sampledSeconds="6144.02" traveltime="14.60" overlapTraveltime="14.78" density="8.57" occupancy="1.06" waitingTime="0.00" speed="27.29" departed="0" arrived="0" entered="418" left="414" laneChangedFrom="61" laneChangedTo="61"/>
        <edge id="48290550.1878" sampledSeconds="7848.80" traveltime="18.82" overlapTraveltime="19.00" density="8.49" occupancy="1.05" waitingTime="0.00" speed="27.31" departed="0" arrived="0" entered="414" left="413" laneChangedFrom="72" laneChangedTo="72"/>
        <edge id="48290550.2391" sampledSeconds="7780.96" traveltime="18.77" overlapTraveltime="18.96" density="8.43" occupancy="1.05" waitingTime="0.00" speed="27.31" departed="0" arrived="0" entered="413" left="407" laneChangedFrom="54" laneChangedTo="54"/>
        <edge id="48290550.2904" sampledSeconds="5195.45" traveltime="12.70" overlapTraveltime="12.88" density="8.37" occupancy="1.04" waitingTime="0.00" speed="27.16" departed="0" arrived="0" entered="407" left="401" laneChangedFrom="140" laneChangedTo="140"/>
        <edge id="48290550.3266" sampledSeconds="1395.80" traveltime="3.30" overlapTraveltime="3.48" density="8.72" occupancy="0.83" waitingTime="0.00" speed="26.99" departed="0" arrived="0" entered="401" left="401" laneChangedFrom="71" laneChangedTo="71"/>
        <edge id="48290550.745" sampledSeconds="6721.50" traveltime="15.82" overlapTraveltime="16.00" density="8.66" occupancy="1.07" waitingTime="0.00" speed="27.26" departed="0" arrived="0" entered="421" left="419" laneChangedFrom="98" laneChangedTo="98"/>
        <edge id="48290551#0" sampledSeconds="1645.77" traveltime="19.75" overlapTraveltime="20.07" density="2.94" occupancy="0.72" waitingTime="0.00" speed="15.76" departed="0" arrived="0" entered="82" left="82" laneChangedFrom="88" laneChangedTo="88"/>
        <edge id="48290551#1" sampledSeconds="1854.71" traveltime="7.83" overlapTraveltime="8.15" density="8.32" occupancy="1.35" waitingTime="0.00" speed="15.83" departed="0" arrived="0" entered="228" left="227" laneChangedFrom="71" laneChangedTo="71"/>
        <edge id="48290552" sampledSeconds="1112.34" traveltime="9.06" overlapTraveltime="9.68" density="4.60" occupancy="2.19" waitingTime="0.00" speed="14.39" departed="0" arrived="0" entered="115" left="114" laneChangedFrom="0" laneChangedTo="0"/>
        <edge id="48516115" sampledSeconds="2169.15" traveltime="10.65" overlapTraveltime="10.89" density="5.22" occupancy="0.51" waitingTime="0.00" speed="21.66" departed="0" arrived="0" entered="200" left="199" laneChangedFrom="12" laneChangedTo="12"/>
        <edge id="48516117" sampledSeconds="1820.37" traveltime="17.95" overlapTraveltime="18.18" density="2.60" occupancy="0.32" waitingTime="0.00" speed="21.69" departed="201" arrived="0" entered="0" left="201" laneChangedFrom="30" laneChangedTo="30"/>
        <edge id="48516117.389" sampledSeconds="4925.15" traveltime="24.36" overlapTraveltime="24.59" density="5.18" occupancy="0.64" waitingTime="0.00" speed="21.70" departed="0" arrived="0" entered="201" left="200" laneChangedFrom="175" laneChangedTo="175"/>
        <edge id="489961226" sampledSeconds="590.04" traveltime="4.73" overlapTraveltime="5.04" density="4.36" occupancy="1.02" waitingTime="0.00" speed="15.91" departed="0" arrived="0" entered="117" left="117" laneChangedFrom="2" laneChangedTo="2"/>
        <edge id="491989399#0" sampledSeconds="1049.10" traveltime="4.46" overlapTraveltime="4.70" density="6.48" occupancy="1.03" waitingTime="0.00" speed="20.22" departed="0" arrived="0" entered="224" left="223" laneChangedFrom="25" laneChangedTo="25"/>
        <edge id="491989399#1-AddedOnRampEdge" sampledSeconds="7909.85" traveltime="24.87" overlapTraveltime="25.11" density="8.31" occupancy="1.04" waitingTime="0.00" speed="21.27" departed="0" arrived="0" entered="316" left="315" laneChangedFrom="217" laneChangedTo="217"/>
        <edge id="491989399#1-AddedOnRampEdge.533" sampledSeconds="5805.91" traveltime="18.32" overlapTraveltime="18.55" density="8.23" occupancy="1.02" waitingTime="0.00" speed="21.39" departed="0" arrived="0" entered="315" left="309" laneChangedFrom="52" laneChangedTo="52"/>
        <edge id="491989399#1-AddedOnRampEdge.925" sampledSeconds="5722.23" traveltime="18.40" overlapTraveltime="18.63" density="8.08" occupancy="1.00" waitingTime="0.00" speed="21.39" departed="0" arrived="306" entered="309" left="0" laneChangedFrom="25" laneChangedTo="25"/>
        <edge id="492226824" sampledSeconds="457.52" traveltime="4.68" overlapTraveltime="4.92" density="2.81" occupancy="1.32" waitingTime="0.00" speed="19.43" departed="0" arrived="0" entered="93" left="93" laneChangedFrom="0" laneChangedTo="0"/>
        <edge id="492226827" sampledSeconds="1748.44" traveltime="19.34" overlapTraveltime="19.65" density="3.06" occupancy="0.75" waitingTime="0.00" speed="16.42" departed="0" arrived="0" entered="89" left="89" laneChangedFrom="14" laneChangedTo="14"/>
        <edge id="492226831" sampledSeconds="2077.23" traveltime="15.21" overlapTraveltime="15.53" density="4.84" occupancy="1.18" waitingTime="0.00" speed="15.68" departed="0" arrived="0" entered="134" left="133" laneChangedFrom="17" laneChangedTo="17"/>
        <edge id="492229071" sampledSeconds="994.06" traveltime="7.45" overlapTraveltime="7.64" density="3.27" occupancy="1.58" waitingTime="0.00" speed="22.79" departed="0" arrived="0" entered="131" left="130" laneChangedFrom="0" laneChangedTo="0"/>